
                                 *****************
                                 * O   R   C   A *
                                 *****************

           --- An Ab Initio, DFT and Semiempirical electronic structure package ---

                  #######################################################
                  #                        -***-                        #
                  #  Department of molecular theory and spectroscopy    #
                  #              Directorship: Frank Neese              #
                  # Max Planck Institute for Chemical Energy Conversion #
                  #                  D-45470 Muelheim/Ruhr              #
                  #                       Germany                       #
                  #                                                     #
                  #                  All rights reserved                #
                  #                        -***-                        #
                  #######################################################


                         Program Version 4.0.1.2 - RELEASE -


 With contributions from (in alphabetic order):
   Daniel Aravena         : Magnetic Properties
   Michael Atanasov       : Ab Initio Ligand Field Theory
   Ute Becker             : Parallelization
   Martin Brehm           : Molecular dynamics
   Dmytro Bykov           : SCF Hessian
   Vijay G. Chilkuri      : MRCI spin determinant printing
   Dipayan Datta          : RHF DLPNO-CCSD density
   Achintya Kumar Dutta   : EOM-CC, STEOM-CC
   Dmitry Ganyushin       : Spin-Orbit,Spin-Spin,Magnetic field MRCI
   Yang Guo               : DLPNO-NEVPT2, CIM, IAO-localization
   Andreas Hansen         : Spin unrestricted coupled pair/coupled cluster methods
   Lee Huntington         : MR-EOM, pCC
   Robert Izsak           : Overlap fitted RIJCOSX, COSX-SCS-MP3, EOM
   Christian Kollmar      : KDIIS, OOCD, Brueckner-CCSD(T), CCSD density
   Simone Kossmann        : Meta GGA functionals, TD-DFT gradient, OOMP2, MP2 Hessian
   Martin Krupicka        : AUTO-CI
   Dagmar Lenk            : GEPOL surface
   Dimitrios Liakos       : Extrapolation schemes; parallel MDCI
   Dimitrios Manganas     : ROCIS; embedding schemes
   Dimitrios Pantazis     : SARC Basis sets
   Taras Petrenko         : DFT Hessian,TD-DFT gradient, ASA, ECA, R-Raman, ABS, FL, XAS/XES, NRVS
   Peter Pinski           : DLPNO-MP2
   Christoph Reimann      : Effective Core Potentials
   Marius Retegan         : Local ZFS, SOC
   Christoph Riplinger    : Optimizer, TS searches, QM/MM, DLPNO-CCSD(T), (RO)-DLPNO pert. Triples
   Tobias Risthaus        : Range-separated hybrids, TD-DFT gradient, RPA, STAB
   Michael Roemelt        : Restricted open shell CIS
   Masaaki Saitow         : Open-shell DLPNO
   Barbara Sandhoefer     : DKH picture change effects
   Kantharuban Sivalingam : CASSCF convergence, NEVPT2, FIC-MRCI
   Georgi Stoychev        : AutoAux
   Boris Wezisla          : Elementary symmetry handling
   Frank Wennmohs         : Technical directorship


 We gratefully acknowledge several colleagues who have allowed us to
 interface, adapt or use parts of their codes:
   Stefan Grimme, W. Hujo, H. Kruse,             : VdW corrections, initial TS optimization,
                  C. Bannwarth                     DFT functionals, gCP, sTDA/sTD-DF
   Ed Valeev                                     : LibInt (2-el integral package), F12 methods
   Garnet Chan, S. Sharma, J. Yang, R. Olivares  : DMRG
   Ulf Ekstrom                                   : XCFun DFT Library
   Mihaly Kallay                                 : mrcc  (arbitrary order and MRCC methods)
   Andreas Klamt, Michael Diedenhofen            : otool_cosmo (COSMO solvation model)
   Jiri Pittner, Ondrej Demel                    : Mk-CCSD
   Frank Weinhold                                : gennbo (NPA and NBO analysis)
   Christopher J. Cramer and Donald G. Truhlar   : smd solvation model


 Your calculation uses the libint2 library for the computation of 2-el integrals
 For citations please refer to: http://libint.valeyev.net

 This ORCA versions uses:
   CBLAS   interface :  Fast vector & matrix operations
   LAPACKE interface :  Fast linear algebra routines
   SCALAPACK package :  Parallel linear algebra routines




*****************************************
The coordinations will be read from file: CH4.xyz
*****************************************


Your calculation utilizes the basis: def2-TZVP
   F. Weigend and R. Ahlrichs, Phys. Chem. Chem. Phys. 7, 3297 (2005).

Your calculation utilizes the auxiliary basis: def2/J
   F. Weigend, Phys. Chem. Chem. Phys. 8, 1057 (2006).

================================================================================
                                        WARNINGS
                       Please study these warnings very carefully!
================================================================================

Warning: TCutStore was < 0. Adjusted to Thresh (uncritical)

INFO   : the flag for use of LIBINT has been found!

================================================================================
                                       INPUT FILE
================================================================================
NAME = freq.inp
|  1> # avogadro generated ORCA input file 
|  2> # Basic Mode
|  3> # 
|  4> ! PBE FREQ def2-TZVP
|  5> 
|  6> * xyzfile 0 1 CH4.xyz
|  7> 
|  8> 
|  9>                          ****END OF INPUT****
================================================================================

                       ****************************
                       * Single Point Calculation *
                       ****************************

---------------------------------
CARTESIAN COORDINATES (ANGSTROEM)
---------------------------------
  C     -0.369380   -0.415550   -0.000000
  H      0.430620   -0.663920    0.665740
  H     -0.046780    0.348780   -0.675740
  H     -0.654670   -1.284890   -0.554750
  H     -1.206680   -0.062160    0.564750

----------------------------
CARTESIAN COORDINATES (A.U.)
----------------------------
  NO LB      ZA    FRAG     MASS         X           Y           Z
   0 C     6.0000    0    12.011   -0.698027   -0.785276   -0.000000
   1 H     1.0000    0     1.008    0.813754   -1.254627    1.258066
   2 H     1.0000    0     1.008   -0.088401    0.659099   -1.276964
   3 H     1.0000    0     1.008   -1.237147   -2.428090   -1.048326
   4 H     1.0000    0     1.008   -2.280295   -0.117465    1.067223

--------------------------------
INTERNAL COORDINATES (ANGSTROEM)
--------------------------------
 C      0   0   0     0.000000000000     0.00000000     0.00000000
 H      1   0   0     1.069998787149     0.00000000     0.00000000
 H      1   2   0     1.069997970325   109.47077544     0.00000000
 H      1   2   3     1.069995318775   109.47132988   119.99976121
 H      1   2   3     1.069999226448   109.47133659   240.00031650

---------------------------
INTERNAL COORDINATES (A.U.)
---------------------------
 C      0   0   0     0.000000000000     0.00000000     0.00000000
 H      1   0   0     2.022004671339     0.00000000     0.00000000
 H      1   2   0     2.022003127766   109.47077544     0.00000000
 H      1   2   3     2.021998117062   109.47132988   119.99976121
 H      1   2   3     2.022005501495   109.47133659   240.00031650

---------------------
BASIS SET INFORMATION
---------------------
There are 2 groups of distinct atoms

 Group   1 Type C   : 11s6p2d1f contracted to 5s3p2d1f pattern {62111/411/11/1}
 Group   2 Type H   : 5s1p contracted to 3s1p pattern {311/1}

Atom   0C    basis set group =>   1
Atom   1H    basis set group =>   2
Atom   2H    basis set group =>   2
Atom   3H    basis set group =>   2
Atom   4H    basis set group =>   2
-------------------------------
AUXILIARY BASIS SET INFORMATION
-------------------------------
There are 2 groups of distinct atoms

 Group   1 Type C   : 12s5p4d2f1g contracted to 6s4p3d1f1g pattern {711111/2111/211/2/1}
 Group   2 Type H   : 5s2p1d contracted to 3s1p1d pattern {311/2/1}

Atom   0C    basis set group =>   1
Atom   1H    basis set group =>   2
Atom   2H    basis set group =>   2
Atom   3H    basis set group =>   2
Atom   4H    basis set group =>   2

Checking for AutoStart:
The File: freq.gbw exists
Trying to determine its content:
     ... Fine, the file contains calculation information
     ... Fine, the calculation information was read
     ... Fine, the file contains a basis set
     ... Fine, the basis set was read
     ... Fine, the file contains a geometry
     ... Fine, the geometry was read
     ... Fine, the file contains a set of orbitals
     ... Fine, the orbitals can be read
     => possible old guess file was deleted
     => GBW file was renamed to GES file
     => GES file is set as startup file
     => Guess is set to MORead
     ... now leaving AutoStart

------------------------------------------------------------------------------
                           ORCA GTO INTEGRAL CALCULATION
                           -- RI-GTO INTEGRALS CHOSEN --
------------------------------------------------------------------------------

                         BASIS SET STATISTICS AND STARTUP INFO

Gaussian basis set:
 # of primitive gaussian shells          ...   44
 # of primitive gaussian functions       ...   78
 # of contracted shells                  ...   27
 # of contracted basis functions         ...   55
 Highest angular momentum                ...    3
 Maximum contraction depth               ...    6
Auxiliary gaussian basis set:
 # of primitive gaussian shells          ...   56
 # of primitive gaussian functions       ...  134
 # of contracted shells                  ...   35
 # of contracted aux-basis functions     ...   93
 Highest angular momentum                ...    4
 Maximum contraction depth               ...    7
Ratio of auxiliary to basis functions    ...  1.69
Integral package used                  ... LIBINT
 One Electron integrals                  ... done
 Ordering auxiliary basis shells         ... done
 Integral threshhold             Thresh  ...  1.000e-10
 Primitive cut-off               TCut    ...  1.000e-11
 Pre-screening matrix                    ... done
 Shell pair data                         ... 
 Ordering of the shell pairs             ... done (   0.000 sec) 378 of 378 pairs
 Determination of significant pairs      ... done (   0.000 sec)
 Creation of shell pair data             ... done (   0.000 sec)
 Storage of shell pair data              ... done (   0.104 sec)
 Shell pair data done in (   0.125 sec)
 Computing two index integrals           ... done
 Cholesky decomposition of the V-matrix  ... done


Timings:
 Total evaluation time                   ...   0.730 sec (  0.012 min)
 One electron matrix time                ...   0.099 sec (  0.002 min) = 13.6%
 Schwartz matrix evaluation time         ...   0.139 sec (  0.002 min) = 19.1%
 Two index repulsion integral time       ...   0.138 sec (  0.002 min) = 18.9%
 Cholesky decomposition of V             ...   0.126 sec (  0.002 min) = 17.2%
 Three index repulsion integral time     ...   0.000 sec (  0.000 min) =  0.0%

-------------------------------------------------------------------------------
                                 ORCA SCF
-------------------------------------------------------------------------------

------------
SCF SETTINGS
------------
Hamiltonian:
 Density Functional     Method          .... DFT(GTOs)
 Exchange Functional    Exchange        .... PBE
   PBE kappa parameter   XKappa         ....  0.804000
   PBE mue parameter    XMuePBE         ....  0.219520
 Correlation Functional Correlation     .... PBE
   PBE beta parameter  CBetaPBE         ....  0.066725
 LDA part of GGA corr.  LDAOpt          .... PW91-LDA
 Gradients option       PostSCFGGA      .... off
   NL short-range parameter             ....  6.400000
 RI-approximation to the Coulomb term is turned on
   Number of auxiliary basis functions  .... 93


General Settings:
 Integral files         IntName         .... freq
 Hartree-Fock type      HFTyp           .... RHF
 Total Charge           Charge          ....    0
 Multiplicity           Mult            ....    1
 Number of Electrons    NEL             ....   10
 Basis Dimension        Dim             ....   55
 Nuclear Repulsion      ENuc            ....     13.6865457701 Eh

Convergence Acceleration:
 DIIS                   CNVDIIS         .... on
   Start iteration      DIISMaxIt       ....    12
   Startup error        DIISStart       ....  0.200000
   # of expansion vecs  DIISMaxEq       ....     5
   Bias factor          DIISBfac        ....   1.050
   Max. coefficient     DIISMaxC        ....  10.000
 Newton-Raphson         CNVNR           .... off
 SOSCF                  CNVSOSCF        .... on
   Start iteration      SOSCFMaxIt      ....   150
   Startup grad/error   SOSCFStart      ....  0.003300
 Level Shifting         CNVShift        .... on
   Level shift para.    LevelShift      ....    0.2500
   Turn off err/grad.   ShiftErr        ....    0.0010
 Zerner damping         CNVZerner       .... off
 Static damping         CNVDamp         .... on
   Fraction old density DampFac         ....    0.7000
   Max. Damping (<1)    DampMax         ....    0.9800
   Min. Damping (>=0)   DampMin         ....    0.0000
   Turn off err/grad.   DampErr         ....    0.1000
 Fernandez-Rico         CNVRico         .... off

SCF Procedure:
 Maximum # iterations   MaxIter         ....   125
 SCF integral mode      SCFMode         .... Direct
   Integral package                     .... LIBINT
 Reset frequeny         DirectResetFreq ....    20
 Integral Threshold     Thresh          ....  1.000e-10 Eh
 Primitive CutOff       TCut            ....  1.000e-11 Eh

Convergence Tolerance:
 Convergence Check Mode ConvCheckMode   .... Total+1el-Energy
 Convergence forced     ConvForced      .... 0
 Energy Change          TolE            ....  1.000e-06 Eh
 1-El. energy change                    ....  1.000e-03 Eh
 Orbital Gradient       TolG            ....  5.000e-05
 Orbital Rotation angle TolX            ....  5.000e-05
 DIIS Error             TolErr          ....  1.000e-06


Diagonalization of the overlap matrix:
Smallest eigenvalue                        ... 1.332e-03
Time for diagonalization                   ...    0.001 sec
Threshold for overlap eigenvalues          ... 1.000e-08
Number of eigenvalues below threshold      ... 0
Time for construction of square roots      ...    0.068 sec
Total time needed                          ...    0.081 sec

---------------------
INITIAL GUESS: MOREAD
---------------------
Guess MOs are being read from file: freq.ges
Input Geometry matches current geometry (good)
Input basis set matches current basis set (good)
MOs were renormalized
MOs were reorthogonalized (Cholesky)
                      ------------------
                      INITIAL GUESS DONE (   0.0 sec)
                      ------------------
-------------------
DFT GRID GENERATION
-------------------

General Integration Accuracy     IntAcc      ...  4.340
Radial Grid Type                 RadialGrid  ... Gauss-Chebyshev
Angular Grid (max. acc.)         AngularGrid ... Lebedev-110
Angular grid pruning method      GridPruning ... 3 (G Style)
Weight generation scheme         WeightScheme... Becke
Basis function cutoff            BFCut       ...    1.0000e-10
Integration weight cutoff        WCut        ...    1.0000e-14
Grids for H and He will be reduced by one unit

# of grid points (after initial pruning)     ...   4832 (   0.0 sec)
# of grid points (after weights+screening)   ...   4751 (   0.0 sec)
nearest neighbour list constructed           ...    0.0 sec
Grid point re-assignment to atoms done       ...    0.0 sec
Grid point division into batches done        ...    0.0 sec
Reduced shell lists constructed in    0.5 sec

Total number of grid points                  ...     4751
Total number of batches                      ...       78
Average number of points per batch           ...       60
Average number of grid points per atom       ...      950
Average number of shells per batch           ...    24.30 (90.01%)
Average number of basis functions per batch  ...    50.08 (91.05%)
Average number of large shells per batch     ...    22.77 (93.70%)
Average number of large basis fcns per batch ...    47.25 (94.36%)
Maximum spatial batch extension              ...  25.60, 19.39, 18.75 au
Average spatial batch extension              ...   5.52,  5.08,  4.89 au

Time for grid setup =    0.621 sec

--------------
SCF ITERATIONS
--------------
ITER       Energy         Delta-E        Max-DP      RMS-DP      [F,P]     Damp
               ***  Starting incremental Fock matrix formation  ***
                      *** Initiating the SOSCF procedure ***
                      *** Re-Reading the Fockian *** 
                      *** Removing any level shift *** 
ITER      Energy       Delta-E        Grad      Rot      Max-DP    RMS-DP
  0    -40.46142114 -40.4614211385  0.000006  0.000006  0.000009  0.000001
               *** Restarting incremental Fock matrix formation ***
                 **** Energy Check signals convergence ****
              ***Rediagonalizing the Fockian in SOSCF/NRSCF***

               *****************************************************
               *                     SUCCESS                       *
               *           SCF CONVERGED AFTER   1 CYCLES          *
               *****************************************************

Setting up the final grid:

General Integration Accuracy     IntAcc      ...  4.670
Radial Grid Type                 RadialGrid  ... Gauss-Chebyshev
Angular Grid (max. acc.)         AngularGrid ... Lebedev-302
Angular grid pruning method      GridPruning ... 3 (G Style)
Weight generation scheme         WeightScheme... Becke
Basis function cutoff            BFCut       ...    1.0000e-10
Integration weight cutoff        WCut        ...    1.0000e-14
Grids for H and He will be reduced by one unit

# of grid points (after initial pruning)     ...  19788 (   0.0 sec)
# of grid points (after weights+screening)   ...  19309 (   0.0 sec)
nearest neighbour list constructed           ...    0.0 sec
Grid point re-assignment to atoms done       ...    0.0 sec
Grid point division into batches done        ...    0.1 sec
Reduced shell lists constructed in    0.2 sec

Total number of grid points                  ...    19309
Total number of batches                      ...      304
Average number of points per batch           ...       63
Average number of grid points per atom       ...     3862
Average number of shells per batch           ...    22.62 (83.79%)
Average number of basis functions per batch  ...    46.64 (84.80%)
Average number of large shells per batch     ...    20.89 (92.35%)
Average number of large basis fcns per batch ...    43.40 (93.04%)
Maximum spatial batch extension              ...  20.64, 20.64, 20.64 au
Average spatial batch extension              ...   3.17,  3.19,  3.34 au

Final grid set up in    0.2 sec
Final integration                            ... done (   0.2 sec)
Change in XC energy                          ...     0.000064258
Integrated number of electrons               ...     9.999987046
Previous integrated no of electrons          ...    10.000078956

----------------
TOTAL SCF ENERGY
----------------

Total Energy       :          -40.46135688 Eh           -1101.00949 eV

Components:
Nuclear Repulsion  :           13.68654577 Eh             372.42984 eV
Electronic Energy  :          -54.14790265 Eh           -1473.43934 eV
One Electron Energy:          -80.32056933 Eh           -2185.63381 eV
Two Electron Energy:           26.17266668 Eh             712.19447 eV

Virial components:
Potential Energy   :          -80.81112557 Eh           -2198.98252 eV
Kinetic Energy     :           40.34976869 Eh            1097.97303 eV
Virial Ratio       :            2.00276552


DFT components:
N(Alpha)           :        4.999993522889 electrons
N(Beta)            :        4.999993522889 electrons
N(Total)           :        9.999987045778 electrons
E(X)               :       -6.559602059909 Eh       
E(C)               :       -0.301462700358 Eh       
E(XC)              :       -6.861064760267 Eh       

---------------
SCF CONVERGENCE
---------------

  Last Energy change         ...   -1.5673e-10  Tolerance :   1.0000e-06
  Last MAX-Density change    ...    1.0460e-05  Tolerance :   1.0000e-05
  Last RMS-Density change    ...    5.5008e-07  Tolerance :   1.0000e-06
  Last Orbital Gradient      ...    4.0807e-06  Tolerance :   5.0000e-05
  Last Orbital Rotation      ...    5.8137e-06  Tolerance :   5.0000e-05

             **** THE GBW FILE WAS UPDATED (freq.gbw) ****
             **** DENSITY FILE WAS UPDATED (freq.scfp.tmp) ****
             **** ENERGY FILE WAS UPDATED (freq.en.tmp) ****
----------------
ORBITAL ENERGIES
----------------

  NO   OCC          E(Eh)            E(eV) 
   0   2.0000      -9.853341      -268.1230 
   1   2.0000      -0.631997       -17.1975 
   2   2.0000      -0.349768        -9.5177 
   3   2.0000      -0.349702        -9.5159 
   4   2.0000      -0.349575        -9.5124 
   5   0.0000       0.036951         1.0055 
   6   0.0000       0.108612         2.9555 
   7   0.0000       0.109322         2.9748 
   8   0.0000       0.109719         2.9856 
   9   0.0000       0.180027         4.8988 
  10   0.0000       0.180186         4.9031 
  11   0.0000       0.183021         4.9803 
  12   0.0000       0.377590        10.2747 
  13   0.0000       0.443084        12.0569 
  14   0.0000       0.443214        12.0605 
  15   0.0000       0.444065        12.0836 
  16   0.0000       0.504868        13.7382 
  17   0.0000       0.548817        14.9341 
  18   0.0000       0.551648        15.0111 
  19   0.0000       0.888048        24.1650 
  20   0.0000       0.889442        24.2029 
  21   0.0000       0.889620        24.2078 
  22   0.0000       1.418960        38.6119 
  23   0.0000       1.420483        38.6533 
  24   0.0000       1.420915        38.6651 
  25   0.0000       1.426189        38.8086 
  26   0.0000       1.483589        40.3705 
  27   0.0000       1.483654        40.3723 
  28   0.0000       1.483716        40.3740 
  29   0.0000       1.889247        51.4090 
  30   0.0000       1.934370        52.6369 
  31   0.0000       1.935311        52.6625 
  32   0.0000       1.935610        52.6706 
  33   0.0000       2.183987        59.4293 
  34   0.0000       2.184368        59.4397 
  35   0.0000       2.184470        59.4424 
  36   0.0000       2.347833        63.8878 
  37   0.0000       2.350893        63.9711 
  38   0.0000       2.528743        68.8106 
  39   0.0000       2.529199        68.8230 
  40   0.0000       2.529374        68.8278 
  41   0.0000       2.905441        79.0611 
  42   0.0000       2.905852        79.0723 
  43   0.0000       2.968752        80.7838 
  44   0.0000       3.299227        89.7765 
  45   0.0000       3.299473        89.7832 
  46   0.0000       3.299839        89.7932 
  47   0.0000       3.428007        93.2808 
  48   0.0000       3.429104        93.3107 
  49   0.0000       3.429966        93.3341 
  50   0.0000       4.161145       113.2305 
  51   0.0000       4.161321       113.2353 
  52   0.0000       4.162028       113.2545 
  53   0.0000       4.425218       120.4163 
  54   0.0000      22.038688       599.7032 

                    ********************************
                    * MULLIKEN POPULATION ANALYSIS *
                    ********************************

-----------------------
MULLIKEN ATOMIC CHARGES
-----------------------
   0 C :   -0.501292
   1 H :    0.127798
   2 H :    0.128158
   3 H :    0.122134
   4 H :    0.123202
Sum of atomic charges:   -0.0000000

--------------------------------
MULLIKEN REDUCED ORBITAL CHARGES
--------------------------------
  0 C s       :     3.256728  s :     3.256728
      pz      :     1.077091  p :     3.228772
      px      :     1.076072
      py      :     1.075608
      dz2     :     0.000104  d :     0.014613
      dxz     :     0.004608
      dyz     :     0.004603
      dx2y2   :     0.003069
      dxy     :     0.002229
      f0      :    -0.000087  f :     0.001180
      f+1     :    -0.000020
      f-1     :    -0.000031
      f+2     :     0.000824
      f-2     :     0.000602
      f+3     :    -0.000060
      f-3     :    -0.000049
  1 H s       :     0.850801  s :     0.850801
      pz      :     0.007438  p :     0.021401
      px      :     0.008582
      py      :     0.005381
  2 H s       :     0.850427  s :     0.850427
      pz      :     0.007496  p :     0.021415
      px      :     0.005653
      py      :     0.008267
  3 H s       :     0.856247  s :     0.856247
      pz      :     0.006938  p :     0.021619
      px      :     0.005523
      py      :     0.009159
  4 H s       :     0.855185  s :     0.855185
      pz      :     0.006982  p :     0.021613
      px      :     0.008860
      py      :     0.005771


                     *******************************
                     * LOEWDIN POPULATION ANALYSIS *
                     *******************************

----------------------
LOEWDIN ATOMIC CHARGES
----------------------
   0 C :   -0.405062
   1 H :    0.101493
   2 H :    0.101449
   3 H :    0.101055
   4 H :    0.101065

-------------------------------
LOEWDIN REDUCED ORBITAL CHARGES
-------------------------------
  0 C s       :     2.879752  s :     2.879752
      pz      :     1.133753  p :     3.401992
      px      :     1.134137
      py      :     1.134101
      dz2     :     0.000887  d :     0.110928
      dxz     :     0.036754
      dyz     :     0.035895
      dx2y2   :     0.021532
      dxy     :     0.015859
      f0      :     0.002874  f :     0.012390
      f+1     :     0.001164
      f-1     :     0.001180
      f+2     :     0.001969
      f-2     :     0.001469
      f+3     :     0.001834
      f-3     :     0.001898
  1 H s       :     0.831062  s :     0.831062
      pz      :     0.023639  p :     0.067445
      px      :     0.027409
      py      :     0.016397
  2 H s       :     0.831109  s :     0.831109
      pz      :     0.023884  p :     0.067443
      px      :     0.017211
      py      :     0.026347
  3 H s       :     0.831500  s :     0.831500
      pz      :     0.021084  p :     0.067444
      px      :     0.016779
      py      :     0.029582
  4 H s       :     0.831507  s :     0.831507
      pz      :     0.021288  p :     0.067427
      px      :     0.028536
      py      :     0.017602


                      *****************************
                      * MAYER POPULATION ANALYSIS *
                      *****************************

  NA   - Mulliken gross atomic population
  ZA   - Total nuclear charge
  QA   - Mulliken gross atomic charge
  VA   - Mayer's total valence
  BVA  - Mayer's bonded valence
  FA   - Mayer's free valence

  ATOM       NA         ZA         QA         VA         BVA        FA
  0 C      6.5013     6.0000    -0.5013     3.9105     3.9105    -0.0000
  1 H      0.8722     1.0000     0.1278     0.9696     0.9696     0.0000
  2 H      0.8718     1.0000     0.1282     0.9693     0.9693    -0.0000
  3 H      0.8779     1.0000     0.1221     0.9718     0.9718    -0.0000
  4 H      0.8768     1.0000     0.1232     0.9715     0.9715    -0.0000

  Mayer bond orders larger than 0.1
B(  0-C ,  1-H ) :   0.9769 B(  0-C ,  2-H ) :   0.9772 B(  0-C ,  3-H ) :   0.9779 
B(  0-C ,  4-H ) :   0.9785 

-------
TIMINGS
-------

Total SCF time: 0 days 0 hours 0 min 2 sec 

Total time                  ....       2.445 sec
Sum of individual times     ....       1.894 sec  ( 77.5%)

Fock matrix formation       ....       0.984 sec  ( 40.2%)
  Split-RI-J                ....       0.274 sec  ( 27.8% of F)
  XC integration            ....       0.579 sec  ( 58.9% of F)
    Basis function eval.    ....       0.123 sec  ( 21.2% of XC)
    Density eval.           ....       0.145 sec  ( 25.1% of XC)
    XC-Functional eval.     ....       0.144 sec  ( 24.9% of XC)
    XC-Potential eval.      ....       0.049 sec  (  8.5% of XC)
Diagonalization             ....       0.005 sec  (  0.2%)
Density matrix formation    ....       0.000 sec  (  0.0%)
Population analysis         ....       0.005 sec  (  0.2%)
Initial guess               ....       0.045 sec  (  1.8%)
Orbital Transformation      ....       0.000 sec  (  0.0%)
Orbital Orthonormalization  ....       0.000 sec  (  0.0%)
DIIS solution               ....       0.000 sec  (  0.0%)
SOSCF solution              ....       0.039 sec  (  1.6%)
Grid generation             ....       0.815 sec  ( 33.4%)

-------------------------   --------------------
FINAL SINGLE POINT ENERGY       -40.461356880467
-------------------------   --------------------


                            ***************************************
                            *     ORCA property calculations      *
                            ***************************************

                                    ---------------------
                                    Active property flags
                                    ---------------------
   (+) Dipole Moment


------------------------------------------------------------------------------
                       ORCA ELECTRIC PROPERTIES CALCULATION
------------------------------------------------------------------------------

Dipole Moment Calculation                       ... on
Quadrupole Moment Calculation                   ... off
Polarizability Calculation                      ... off
GBWName                                         ... freq.gbw
Electron density file                           ... freq.scfp.tmp
The origin for moment calculation is the CENTER OF MASS  = (-0.698026, -0.785275  0.000000)

-------------
DIPOLE MOMENT
-------------
                                X             Y             Z
Electronic contribution:     -0.00181      -0.00194      -0.00019
Nuclear contribution   :      0.00001       0.00001       0.00000
                        -----------------------------------------
Total Dipole Moment    :     -0.00180      -0.00193      -0.00019
                        -----------------------------------------
Magnitude (a.u.)       :      0.00265
Magnitude (Debye)      :      0.00673


-------------------------------------------------------------------------------
                               ORCA SCF HESSIAN
-------------------------------------------------------------------------------

Hessian of the Kohn-Sham DFT energy:
Kohn-Sham wavefunction type                      ... RKS
Hartree-Fock exchange scaling                    ...    0.000
Number of operators                              ...    1
Number of atoms                                  ...    5
Basis set dimensions                             ...   55
Integral neglect threshold                       ... 1.0e-10
Integral primitive cutoff                        ... 1.0e-11

Setting up DFT Hessian calculations              ... 
Electron density on the grid                     ... found on disk
Electron density on the final grid               ... found on disk
Building xc-kernel on the grid                   ... done   (      0.0 sec)
Building xc-kernel on the final grid             ... done   (      0.1 sec)
                                                     done   (      0.1 sec)

Nuclear repulsion Hessian                        ... done   (      0.0 sec)

----------------------------------------------
Forming right-hand sides of CP-SCF equations     ...
----------------------------------------------
One electron integral derivatives                ... done   (      0.2 sec)
Transforming the overlap derivative matrices     ... done   (      0.0 sec)
Making the Q(x) pseudodensities                  ... done   (      0.0 sec)
Adding the E*S(x)*S(y) terms to the Hessian      ... done   (      0.0 sec)
Calculating energy weighted overlap derivatives  ... done   (      0.0 sec)
Two electron integral derivatives (RI)           ... done   (      0.3 sec)
Exchange-correlation integral derivatives        ... done   (      2.5 sec)
tr(F(y)Q(x)) contribution to the Hessian         ... done   (      0.0 sec)
Response fock operator R(S(x)) (RI)              ... done   (      0.4 sec)
XC Response fock operator R(S(x))                ... done   (      0.8 sec)
tr(F(y)S(x)) contribution to the Hessian         ... done   (      0.0 sec)
Transforming and finalizing RHSs                 ... done   (      0.0 sec)

----------------------------------------------
Solving the CP-SCF equations (RI)                ...
----------------------------------------------
     CP-SCF ITERATION   0: 
     CP-SCF ITERATION   1:      0.000187007045
     CP-SCF ITERATION   2:      0.000007479871
     CP-SCF ITERATION   3:      0.000000053690

                                                 ... done   (      3.2 sec)
Forming perturbed density Hessian contributions  ... done   (      0.0 sec)
Making the perturbed densities                   ... done   (      0.0 sec)
2nd integral derivative contribs (RI)            ... done   (      0.6 sec)
Exchange-correlation Hessian                     ... done   (      3.3 sec)
Dipol derivatives                                ... done   (      0.1 sec)

Total SCF Hessian time: 0 days 0 hours 0 min 11 sec 

Writing the Hessian file to the disk             ... done


-----------------------
VIBRATIONAL FREQUENCIES
-----------------------

   0:         0.00 cm**-1
   1:         0.00 cm**-1
   2:         0.00 cm**-1
   3:         0.00 cm**-1
   4:         0.00 cm**-1
   5:         0.00 cm**-1
   6:      1220.40 cm**-1
   7:      1221.23 cm**-1
   8:      1221.39 cm**-1
   9:      1483.53 cm**-1
  10:      1484.05 cm**-1
  11:      3198.13 cm**-1
  12:      3331.83 cm**-1
  13:      3332.03 cm**-1
  14:      3332.13 cm**-1


------------
NORMAL MODES
------------

These modes are the cartesian displacements weighted by the diagonal matrix
M(i,i)=1/sqrt(m[i]) where m[i] is the mass of the displaced atom
Thus, these vectors are normalized but *not* orthogonal

                  0          1          2          3          4          5    
      0       0.000000   0.000000   0.000000   0.000000   0.000000   0.000000
      1       0.000000   0.000000   0.000000   0.000000   0.000000   0.000000
      2       0.000000   0.000000   0.000000   0.000000   0.000000   0.000000
      3       0.000000   0.000000   0.000000   0.000000   0.000000   0.000000
      4       0.000000   0.000000   0.000000   0.000000   0.000000   0.000000
      5       0.000000   0.000000   0.000000   0.000000   0.000000   0.000000
      6       0.000000   0.000000   0.000000   0.000000   0.000000   0.000000
      7       0.000000   0.000000   0.000000   0.000000   0.000000   0.000000
      8       0.000000   0.000000   0.000000   0.000000   0.000000   0.000000
      9       0.000000   0.000000   0.000000   0.000000   0.000000   0.000000
     10       0.000000   0.000000   0.000000   0.000000   0.000000   0.000000
     11       0.000000   0.000000   0.000000   0.000000   0.000000   0.000000
     12       0.000000   0.000000   0.000000   0.000000   0.000000   0.000000
     13       0.000000   0.000000   0.000000   0.000000   0.000000   0.000000
     14       0.000000   0.000000   0.000000   0.000000   0.000000   0.000000
                  6          7          8          9         10         11    
      0       0.006630  -0.124325   0.010445   0.000186  -0.000102   0.000042
      1      -0.090530  -0.011993  -0.085263   0.000108  -0.000047   0.000068
      2      -0.085853   0.003053   0.090721  -0.000028  -0.000007   0.000014
      3      -0.146436   0.232970   0.299285  -0.209651   0.258045  -0.374034
      4       0.473049   0.171477   0.303289  -0.446816  -0.193228   0.116226
      5       0.320211  -0.320020  -0.147267   0.085314  -0.382399  -0.311251
      6      -0.046485   0.519707  -0.244052  -0.476621   0.027052  -0.150890
      7       0.404064  -0.132896  -0.045334   0.131364   0.324301  -0.357582
      8       0.444675   0.153403  -0.034176  -0.079167   0.379868   0.316166
      9      -0.204502   0.540707  -0.079041   0.478474  -0.050668   0.133133
     10      -0.088462  -0.128984   0.324185  -0.140231  -0.255608   0.405590
     11       0.079153  -0.134549  -0.494918  -0.026119   0.426571   0.258738
     12       0.318418   0.188038  -0.100658   0.205578  -0.233220   0.391286
     13       0.290074   0.233309   0.433831   0.454393   0.125097  -0.165046
     14       0.178959   0.264790  -0.404642   0.020300  -0.423955  -0.263821
                  12         13         14    
      0       0.028170   0.086333   0.014988
      1      -0.041487   0.027006  -0.077599
      2       0.077186  -0.016984  -0.047172
      3      -0.557679  -0.322890   0.003832
      4       0.166190   0.111759  -0.016766
      5      -0.452558  -0.287685  -0.009574
      6       0.207801  -0.143285   0.064100
      7       0.469258  -0.377454   0.127619
      8      -0.406195   0.335114  -0.137589
      9      -0.029326  -0.073972   0.216579
     10      -0.116405  -0.275872   0.633578
     11      -0.052165  -0.183420   0.404793
     12       0.043537  -0.488575  -0.463099
     13      -0.024693   0.219772   0.180218
     14      -0.008803   0.338363   0.304452


-----------
IR SPECTRUM
-----------

 Mode    freq (cm**-1)   T**2         TX         TY         TZ
-------------------------------------------------------------------
   6:      1220.40   19.226400  ( -0.243455   3.205869   2.981532)
   7:      1221.23   19.387740  (  4.380063   0.437410  -0.107073)
   8:      1221.39   18.904874  ( -0.361121   2.972378  -3.152686)
   9:      1483.53    0.003816  ( -0.043966  -0.016784   0.040015)
  10:      1484.05    0.004242  (  0.052504   0.038191  -0.005211)
  11:      3198.13    0.002620  (  0.039657   0.032166   0.003497)
  12:      3331.83   17.385347  (  1.273519  -1.905305   3.483290)
  13:      3332.03   17.478841  (  3.924015   1.218974  -0.771394)
  14:      3332.13   17.267667  (  0.667887  -3.502394  -2.134205)

The first frequency considered to be a vibration is 6
The total number of vibrations considered is 9


--------------------------
THERMOCHEMISTRY AT 298.15K
--------------------------

Temperature         ... 298.15 K
Pressure            ... 1.00 atm
Total Mass          ... 16.04 AMU

Throughout the following assumptions are being made:
  (1) The electronic state is orbitally nondegenerate
  (2) There are no thermally accessible electronically excited states
  (3) Hindered rotations indicated by low frequency modes are not
      treated as such but are treated as vibrations and this may
      cause some error
  (4) All equations used are the standard statistical mechanics
      equations for an ideal gas
  (5) All vibrations are strictly harmonic

freq.    1220.40  E(vib)   ...       0.01 
freq.    1221.23  E(vib)   ...       0.01 
freq.    1221.39  E(vib)   ...       0.01 
freq.    1483.53  E(vib)   ...       0.00 
freq.    1484.05  E(vib)   ...       0.00 
freq.    3198.13  E(vib)   ...       0.00 
freq.    3331.83  E(vib)   ...       0.00 
freq.    3332.03  E(vib)   ...       0.00 
freq.    3332.13  E(vib)   ...       0.00 

------------
INNER ENERGY
------------

The inner energy is: U= E(el) + E(ZPE) + E(vib) + E(rot) + E(trans)
    E(el)   - is the total energy from the electronic structure calculation
              = E(kin-el) + E(nuc-el) + E(el-el) + E(nuc-nuc)
    E(ZPE)  - the the zero temperature vibrational energy from the frequency calculation
    E(vib)  - the the finite temperature correction to E(ZPE) due to population
              of excited vibrational states
    E(rot)  - is the rotational thermal energy
    E(trans)- is the translational thermal energy

Summary of contributions to the inner energy U:
Electronic energy                ...    -40.46135688 Eh
Zero point energy                ...      0.04516407 Eh      28.34 kcal/mol
Thermal vibrational correction   ...      0.00005674 Eh       0.04 kcal/mol
Thermal rotational correction    ...      0.00141627 Eh       0.89 kcal/mol
Thermal translational correction ...      0.00141627 Eh       0.89 kcal/mol
-----------------------------------------------------------------------
Total thermal energy                    -40.41330354 Eh


Summary of corrections to the electronic energy:
(perhaps to be used in another calculation)
Total thermal correction                  0.00288928 Eh       1.81 kcal/mol
Non-thermal (ZPE) correction              0.04516407 Eh      28.34 kcal/mol
-----------------------------------------------------------------------
Total correction                          0.04805334 Eh      30.15 kcal/mol


--------
ENTHALPY
--------

The enthalpy is H = U + kB*T
                kB is Boltzmann's constant
Total free energy                 ...    -40.41330354 Eh 
Thermal Enthalpy correction       ...      0.00094421 Eh       0.59 kcal/mol
-----------------------------------------------------------------------
Total Enthalpy                    ...    -40.41235933 Eh


Vibrational entropy computed according to the QRRHO of S. Grimme
Chem.Eur.J. 2012 18 9955


-------
ENTROPY
-------

The entropy contributions are T*S = T*(S(el)+S(vib)+S(rot)+S(trans)
     S(el)   - electronic entropy
     S(vib)  - vibrational entropy
     S(rot)  - rotational entropy
     S(trans)- translational entropy
The entropies will be listed as mutliplied by the temperature to get
units of energy

Electronic entropy                ...      0.00000000 Eh      0.00 kcal/mol
Vibrational entropy               ...      0.00006606 Eh      0.04 kcal/mol
Rotational entropy                ...      0.00606488 Eh      3.81 kcal/mol
Translational entropy             ...      0.01627961 Eh     10.22 kcal/mol
-----------------------------------------------------------------------
Final entropy term                ...      0.02241055 Eh     14.06 kcal/mol


CAUTION: The rotational entropy is not quite correctly treated here
         because it includes a symmetry number that is not yet correctly
         implemented in ORCA!
For a nonlinear molecule the correct rotational entropy is:
    S(rot) = R*(ln(qrot/sn)+1.5)
    R    = 8.31441 J/mol/K = 1.987191683e-3 kcal/mol/K
    qrot =  412.4188996
    sn is the rotational symmetry number. We have assumed 3 here
       if it is different for your molecule then you should correct
       the printed rotational entropy by manually evaluating the equation
       as given above

For convenience we print out the resulting values for sn=1 - 12:
 sn= 1  qrot/sn=     412.4189 T*S(rot)=     4.46 kcal/mol T*S(tot)=    14.71 kcal/mol
 sn= 2  qrot/sn=     206.2094 T*S(rot)=     4.05 kcal/mol T*S(tot)=    14.30 kcal/mol
 sn= 3  qrot/sn=     137.4730 T*S(rot)=     3.81 kcal/mol T*S(tot)=    14.06 kcal/mol
 sn= 4  qrot/sn=     103.1047 T*S(rot)=     3.64 kcal/mol T*S(tot)=    13.89 kcal/mol
 sn= 5  qrot/sn=      82.4838 T*S(rot)=     3.50 kcal/mol T*S(tot)=    13.76 kcal/mol
 sn= 6  qrot/sn=      68.7365 T*S(rot)=     3.40 kcal/mol T*S(tot)=    13.65 kcal/mol
 sn= 7  qrot/sn=      58.9170 T*S(rot)=     3.30 kcal/mol T*S(tot)=    13.56 kcal/mol
 sn= 8  qrot/sn=      51.5524 T*S(rot)=     3.22 kcal/mol T*S(tot)=    13.48 kcal/mol
 sn= 9  qrot/sn=      45.8243 T*S(rot)=     3.15 kcal/mol T*S(tot)=    13.41 kcal/mol
 sn=10  qrot/sn=      41.2419 T*S(rot)=     3.09 kcal/mol T*S(tot)=    13.35 kcal/mol
 sn=11  qrot/sn=      37.4926 T*S(rot)=     3.04 kcal/mol T*S(tot)=    13.29 kcal/mol
 sn=12  qrot/sn=      34.3682 T*S(rot)=     2.98 kcal/mol T*S(tot)=    13.24 kcal/mol


-------------------
GIBBS FREE ENTHALPY
-------------------

The Gibbs free enthalpy is G = H - T*S

Total enthalpy                    ...    -40.41235933 Eh 
Total entropy correction          ...     -0.02241055 Eh    -14.06 kcal/mol
-----------------------------------------------------------------------
Final Gibbs free enthalpy         ...    -40.43476987 Eh

For completeness - the Gibbs free enthalpy minus the electronic energy
G-E(el)                           ...      0.02658701 Eh     16.68 kcal/mol


Timings for individual modules:

Sum of individual times         ...       15.215 sec (=   0.254 min)
GTO integral calculation        ...        1.041 sec (=   0.017 min)   6.8 %
SCF iterations                  ...        2.518 sec (=   0.042 min)  16.6 %
Analytical frequency calculation...       11.656 sec (=   0.194 min)  76.6 %
                             ****ORCA TERMINATED NORMALLY****
TOTAL RUN TIME: 0 days 0 hours 0 minutes 16 seconds 575 msec
