
                                 *****************
                                 * O   R   C   A *
                                 *****************

           --- An Ab Initio, DFT and Semiempirical electronic structure package ---

                  #######################################################
                  #                        -***-                        #
                  #  Department of molecular theory and spectroscopy    #
                  #              Directorship: Frank Neese              #
                  # Max Planck Institute for Chemical Energy Conversion #
                  #                  D-45470 Muelheim/Ruhr              #
                  #                       Germany                       #
                  #                                                     #
                  #                  All rights reserved                #
                  #                        -***-                        #
                  #######################################################


                         Program Version 4.0.1.2 - RELEASE -


 With contributions from (in alphabetic order):
   Daniel Aravena         : Magnetic Properties
   Michael Atanasov       : Ab Initio Ligand Field Theory
   Ute Becker             : Parallelization
   Martin Brehm           : Molecular dynamics
   Dmytro Bykov           : SCF Hessian
   Vijay G. Chilkuri      : MRCI spin determinant printing
   Dipayan Datta          : RHF DLPNO-CCSD density
   Achintya Kumar Dutta   : EOM-CC, STEOM-CC
   Dmitry Ganyushin       : Spin-Orbit,Spin-Spin,Magnetic field MRCI
   Yang Guo               : DLPNO-NEVPT2, CIM, IAO-localization
   Andreas Hansen         : Spin unrestricted coupled pair/coupled cluster methods
   Lee Huntington         : MR-EOM, pCC
   Robert Izsak           : Overlap fitted RIJCOSX, COSX-SCS-MP3, EOM
   Christian Kollmar      : KDIIS, OOCD, Brueckner-CCSD(T), CCSD density
   Simone Kossmann        : Meta GGA functionals, TD-DFT gradient, OOMP2, MP2 Hessian
   Martin Krupicka        : AUTO-CI
   Dagmar Lenk            : GEPOL surface
   Dimitrios Liakos       : Extrapolation schemes; parallel MDCI
   Dimitrios Manganas     : ROCIS; embedding schemes
   Dimitrios Pantazis     : SARC Basis sets
   Taras Petrenko         : DFT Hessian,TD-DFT gradient, ASA, ECA, R-Raman, ABS, FL, XAS/XES, NRVS
   Peter Pinski           : DLPNO-MP2
   Christoph Reimann      : Effective Core Potentials
   Marius Retegan         : Local ZFS, SOC
   Christoph Riplinger    : Optimizer, TS searches, QM/MM, DLPNO-CCSD(T), (RO)-DLPNO pert. Triples
   Tobias Risthaus        : Range-separated hybrids, TD-DFT gradient, RPA, STAB
   Michael Roemelt        : Restricted open shell CIS
   Masaaki Saitow         : Open-shell DLPNO
   Barbara Sandhoefer     : DKH picture change effects
   Kantharuban Sivalingam : CASSCF convergence, NEVPT2, FIC-MRCI
   Georgi Stoychev        : AutoAux
   Boris Wezisla          : Elementary symmetry handling
   Frank Wennmohs         : Technical directorship


 We gratefully acknowledge several colleagues who have allowed us to
 interface, adapt or use parts of their codes:
   Stefan Grimme, W. Hujo, H. Kruse,             : VdW corrections, initial TS optimization,
                  C. Bannwarth                     DFT functionals, gCP, sTDA/sTD-DF
   Ed Valeev                                     : LibInt (2-el integral package), F12 methods
   Garnet Chan, S. Sharma, J. Yang, R. Olivares  : DMRG
   Ulf Ekstrom                                   : XCFun DFT Library
   Mihaly Kallay                                 : mrcc  (arbitrary order and MRCC methods)
   Andreas Klamt, Michael Diedenhofen            : otool_cosmo (COSMO solvation model)
   Jiri Pittner, Ondrej Demel                    : Mk-CCSD
   Frank Weinhold                                : gennbo (NPA and NBO analysis)
   Christopher J. Cramer and Donald G. Truhlar   : smd solvation model


 Your calculation uses the libint2 library for the computation of 2-el integrals
 For citations please refer to: http://libint.valeyev.net

 This ORCA versions uses:
   CBLAS   interface :  Fast vector & matrix operations
   LAPACKE interface :  Fast linear algebra routines
   SCALAPACK package :  Parallel linear algebra routines




*****************************************
The coordinations will be read from file: CH4.xyz
*****************************************


Your calculation utilizes the basis: def2-TZVP
   F. Weigend and R. Ahlrichs, Phys. Chem. Chem. Phys. 7, 3297 (2005).

Your calculation utilizes the auxiliary basis: def2/J
   F. Weigend, Phys. Chem. Chem. Phys. 8, 1057 (2006).

================================================================================
                                        WARNINGS
                       Please study these warnings very carefully!
================================================================================

Warning: TCutStore was < 0. Adjusted to Thresh (uncritical)

WARNING: Geometry Optimization
  ===> : Switching off AutoStart
         For restart on a previous wavefunction, please use MOREAD

INFO   : the flag for use of LIBINT has been found!

================================================================================
                                       INPUT FILE
================================================================================
NAME = opt.inp
|  1> # avogadro generated ORCA input file 
|  2> # Basic Mode
|  3> # 
|  4> ! PBE OPT def2-TZVP
|  5> 
|  6> * xyzfile 0 1 CH4.xyz
|  7> 
|  8> 
|  9>                          ****END OF INPUT****
================================================================================

                       *****************************
                       * Geometry Optimization Run *
                       *****************************

Geometry optimization settings:
Update method            Update   .... BFGS
Choice of coordinates    CoordSys .... Redundant Internals
Initial Hessian          InHess   .... Almoef's Model

Convergence Tolerances:
Energy Change            TolE     ....  5.0000e-06 Eh
Max. Gradient            TolMAXG  ....  3.0000e-04 Eh/bohr
RMS Gradient             TolRMSG  ....  1.0000e-04 Eh/bohr
Max. Displacement        TolMAXD  ....  4.0000e-03 bohr
RMS Displacement         TolRMSD  ....  2.0000e-03 bohr

------------------------------------------------------------------------------
                        ORCA OPTIMIZATION COORDINATE SETUP
------------------------------------------------------------------------------

The optimization will be done in new redundant internal coordinates
Making redundant internal coordinates   ...  (new redundants) done
Evaluating the initial hessian          ...  (Almloef) done
Evaluating the coordinates              ...  done
Calculating the B-matrix                .... done
Calculating the G-matrix                .... done
Diagonalizing the G-matrix              .... done
The first mode is                       ....    1
The number of degrees of freedom        ....    9

    -----------------------------------------------------------------
                    Redundant Internal Coordinates


    -----------------------------------------------------------------
         Definition                    Initial Value    Approx d2E/dq
    -----------------------------------------------------------------
      1. B(H   1,C   0)                  1.0700         0.387555   
      2. B(H   2,C   0)                  1.0700         0.387557   
      3. B(H   3,C   0)                  1.0700         0.387560   
      4. B(H   4,C   0)                  1.0700         0.387555   
      5. A(H   1,C   0,H   3)          109.4713         0.297666   
      6. A(H   2,C   0,H   3)          109.4712         0.297666   
      7. A(H   1,C   0,H   4)          109.4713         0.297666   
      8. A(H   2,C   0,H   4)          109.4711         0.297666   
      9. A(H   3,C   0,H   4)          109.4716         0.297666   
     10. A(H   1,C   0,H   2)          109.4708         0.297666   
    -----------------------------------------------------------------

Number of atoms                         .... 5
Number of degrees of freedom            .... 10

         *************************************************************
         *                GEOMETRY OPTIMIZATION CYCLE   1            *
         *************************************************************
---------------------------------
CARTESIAN COORDINATES (ANGSTROEM)
---------------------------------
  C     -0.369380   -0.415550   -0.000000
  H      0.430620   -0.663920    0.665740
  H     -0.046780    0.348780   -0.675740
  H     -0.654670   -1.284890   -0.554750
  H     -1.206680   -0.062160    0.564750

----------------------------
CARTESIAN COORDINATES (A.U.)
----------------------------
  NO LB      ZA    FRAG     MASS         X           Y           Z
   0 C     6.0000    0    12.011   -0.698027   -0.785276   -0.000000
   1 H     1.0000    0     1.008    0.813754   -1.254627    1.258066
   2 H     1.0000    0     1.008   -0.088401    0.659099   -1.276964
   3 H     1.0000    0     1.008   -1.237147   -2.428090   -1.048326
   4 H     1.0000    0     1.008   -2.280295   -0.117465    1.067223

--------------------------------
INTERNAL COORDINATES (ANGSTROEM)
--------------------------------
 C      0   0   0     0.000000000000     0.00000000     0.00000000
 H      1   0   0     1.069998787149     0.00000000     0.00000000
 H      1   2   0     1.069997970325   109.47077544     0.00000000
 H      1   2   3     1.069995318775   109.47132988   119.99976121
 H      1   2   3     1.069999226448   109.47133659   240.00031650

---------------------------
INTERNAL COORDINATES (A.U.)
---------------------------
 C      0   0   0     0.000000000000     0.00000000     0.00000000
 H      1   0   0     2.022004671339     0.00000000     0.00000000
 H      1   2   0     2.022003127766   109.47077544     0.00000000
 H      1   2   3     2.021998117062   109.47132988   119.99976121
 H      1   2   3     2.022005501495   109.47133659   240.00031650

---------------------
BASIS SET INFORMATION
---------------------
There are 2 groups of distinct atoms

 Group   1 Type C   : 11s6p2d1f contracted to 5s3p2d1f pattern {62111/411/11/1}
 Group   2 Type H   : 5s1p contracted to 3s1p pattern {311/1}

Atom   0C    basis set group =>   1
Atom   1H    basis set group =>   2
Atom   2H    basis set group =>   2
Atom   3H    basis set group =>   2
Atom   4H    basis set group =>   2
-------------------------------
AUXILIARY BASIS SET INFORMATION
-------------------------------
There are 2 groups of distinct atoms

 Group   1 Type C   : 12s5p4d2f1g contracted to 6s4p3d1f1g pattern {711111/2111/211/2/1}
 Group   2 Type H   : 5s2p1d contracted to 3s1p1d pattern {311/2/1}

Atom   0C    basis set group =>   1
Atom   1H    basis set group =>   2
Atom   2H    basis set group =>   2
Atom   3H    basis set group =>   2
Atom   4H    basis set group =>   2
------------------------------------------------------------------------------
                           ORCA GTO INTEGRAL CALCULATION
                           -- RI-GTO INTEGRALS CHOSEN --
------------------------------------------------------------------------------

                         BASIS SET STATISTICS AND STARTUP INFO

Gaussian basis set:
 # of primitive gaussian shells          ...   44
 # of primitive gaussian functions       ...   78
 # of contracted shells                  ...   27
 # of contracted basis functions         ...   55
 Highest angular momentum                ...    3
 Maximum contraction depth               ...    6
Auxiliary gaussian basis set:
 # of primitive gaussian shells          ...   56
 # of primitive gaussian functions       ...  134
 # of contracted shells                  ...   35
 # of contracted aux-basis functions     ...   93
 Highest angular momentum                ...    4
 Maximum contraction depth               ...    7
Ratio of auxiliary to basis functions    ...  1.69
Integral package used                  ... LIBINT
 One Electron integrals                  ... done
 Ordering auxiliary basis shells         ... done
 Integral threshhold             Thresh  ...  2.500e-11
 Primitive cut-off               TCut    ...  2.500e-12
 Pre-screening matrix                    ... done
 Shell pair data                         ... 
 Ordering of the shell pairs             ... done (   0.000 sec) 378 of 378 pairs
 Determination of significant pairs      ... done (   0.000 sec)
 Creation of shell pair data             ... done (   0.000 sec)
 Storage of shell pair data              ... done (   0.189 sec)
 Shell pair data done in (   0.294 sec)
 Computing two index integrals           ... done
 Cholesky decomposition of the V-matrix  ... done


Timings:
 Total evaluation time                   ...   2.065 sec (  0.034 min)
 One electron matrix time                ...   0.381 sec (  0.006 min) = 18.5%
 Schwartz matrix evaluation time         ...   0.150 sec (  0.002 min) =  7.2%
 Two index repulsion integral time       ...   0.489 sec (  0.008 min) = 23.7%
 Cholesky decomposition of V             ...   0.425 sec (  0.007 min) = 20.6%
 Three index repulsion integral time     ...   0.001 sec (  0.000 min) =  0.0%

-------------------------------------------------------------------------------
                                 ORCA SCF
-------------------------------------------------------------------------------

------------
SCF SETTINGS
------------
Hamiltonian:
 Density Functional     Method          .... DFT(GTOs)
 Exchange Functional    Exchange        .... PBE
   PBE kappa parameter   XKappa         ....  0.804000
   PBE mue parameter    XMuePBE         ....  0.219520
 Correlation Functional Correlation     .... PBE
   PBE beta parameter  CBetaPBE         ....  0.066725
 LDA part of GGA corr.  LDAOpt          .... PW91-LDA
 Gradients option       PostSCFGGA      .... off
   NL short-range parameter             ....  6.400000
 RI-approximation to the Coulomb term is turned on
   Number of auxiliary basis functions  .... 93


General Settings:
 Integral files         IntName         .... opt
 Hartree-Fock type      HFTyp           .... RHF
 Total Charge           Charge          ....    0
 Multiplicity           Mult            ....    1
 Number of Electrons    NEL             ....   10
 Basis Dimension        Dim             ....   55
 Nuclear Repulsion      ENuc            ....     13.6865457701 Eh

Convergence Acceleration:
 DIIS                   CNVDIIS         .... on
   Start iteration      DIISMaxIt       ....    12
   Startup error        DIISStart       ....  0.200000
   # of expansion vecs  DIISMaxEq       ....     5
   Bias factor          DIISBfac        ....   1.050
   Max. coefficient     DIISMaxC        ....  10.000
 Newton-Raphson         CNVNR           .... off
 SOSCF                  CNVSOSCF        .... on
   Start iteration      SOSCFMaxIt      ....   150
   Startup grad/error   SOSCFStart      ....  0.003300
 Level Shifting         CNVShift        .... on
   Level shift para.    LevelShift      ....    0.2500
   Turn off err/grad.   ShiftErr        ....    0.0010
 Zerner damping         CNVZerner       .... off
 Static damping         CNVDamp         .... on
   Fraction old density DampFac         ....    0.7000
   Max. Damping (<1)    DampMax         ....    0.9800
   Min. Damping (>=0)   DampMin         ....    0.0000
   Turn off err/grad.   DampErr         ....    0.1000
 Fernandez-Rico         CNVRico         .... off

SCF Procedure:
 Maximum # iterations   MaxIter         ....   125
 SCF integral mode      SCFMode         .... Direct
   Integral package                     .... LIBINT
 Reset frequeny         DirectResetFreq ....    20
 Integral Threshold     Thresh          ....  2.500e-11 Eh
 Primitive CutOff       TCut            ....  2.500e-12 Eh

Convergence Tolerance:
 Convergence Check Mode ConvCheckMode   .... Total+1el-Energy
 Convergence forced     ConvForced      .... 0
 Energy Change          TolE            ....  1.000e-08 Eh
 1-El. energy change                    ....  1.000e-05 Eh
 Orbital Gradient       TolG            ....  1.000e-05
 Orbital Rotation angle TolX            ....  1.000e-05
 DIIS Error             TolErr          ....  5.000e-07


Diagonalization of the overlap matrix:
Smallest eigenvalue                        ... 1.332e-03
Time for diagonalization                   ...    0.037 sec
Threshold for overlap eigenvalues          ... 1.000e-08
Number of eigenvalues below threshold      ... 0
Time for construction of square roots      ...    0.003 sec
Total time needed                          ...    0.040 sec

-------------------
DFT GRID GENERATION
-------------------

General Integration Accuracy     IntAcc      ...  4.340
Radial Grid Type                 RadialGrid  ... Gauss-Chebyshev
Angular Grid (max. acc.)         AngularGrid ... Lebedev-110
Angular grid pruning method      GridPruning ... 3 (G Style)
Weight generation scheme         WeightScheme... Becke
Basis function cutoff            BFCut       ...    1.0000e-11
Integration weight cutoff        WCut        ...    1.0000e-14
Grids for H and He will be reduced by one unit

# of grid points (after initial pruning)     ...   4832 (   0.0 sec)
# of grid points (after weights+screening)   ...   4751 (   0.0 sec)
nearest neighbour list constructed           ...    0.0 sec
Grid point re-assignment to atoms done       ...    0.0 sec
Grid point division into batches done        ...    0.0 sec
Reduced shell lists constructed in    0.0 sec

Total number of grid points                  ...     4751
Total number of batches                      ...       78
Average number of points per batch           ...       60
Average number of grid points per atom       ...      950
Average number of shells per batch           ...    24.62 (91.19%)
Average number of basis functions per batch  ...    50.82 (92.41%)
Average number of large shells per batch     ...    23.16 (94.09%)
Average number of large basis fcns per batch ...    47.97 (94.40%)
Maximum spatial batch extension              ...  25.60, 19.39, 18.75 au
Average spatial batch extension              ...   5.52,  5.08,  4.89 au

Time for grid setup =    0.039 sec

------------------------------
INITIAL GUESS: MODEL POTENTIAL
------------------------------
Loading Hartree-Fock densities                     ... done
Calculating cut-offs                               ... done
Setting up the integral package                    ... done
Initializing the effective Hamiltonian             ... done
Starting the Coulomb interaction                   ... done (   0.0 sec)
Reading the grid                                   ... done
Mapping shells                                     ... done
Starting the XC term evaluation                    ... done (   0.0 sec)
  promolecular density results
     # of electrons  =      9.996640707
     EX              =     -6.280251000
     EC              =     -0.295916367
     EX+EC           =     -6.576167367
Transforming the Hamiltonian                       ... done (   0.0 sec)
Diagonalizing the Hamiltonian                      ... done (   0.0 sec)
Back transforming the eigenvectors                 ... done (   0.0 sec)
Now organizing SCF variables                       ... done
                      ------------------
                      INITIAL GUESS DONE (   0.2 sec)
                      ------------------
--------------
SCF ITERATIONS
--------------
ITER       Energy         Delta-E        Max-DP      RMS-DP      [F,P]     Damp
               ***  Starting incremental Fock matrix formation  ***
  0    -40.3782178303   0.000000000000 0.04338218  0.00240099  0.2260150 0.7000
  1    -40.4200620783  -0.041844248015 0.02469273  0.00167320  0.1062573 0.7000
                               ***Turning on DIIS***
  2    -40.4343940746  -0.014331996305 0.03054503  0.00248553  0.0282748 0.0000
  3    -40.4533086346  -0.018914559982 0.01563070  0.00106484  0.0705785 0.0000
  4    -40.4607442674  -0.007435632812 0.00459371  0.00040637  0.0196086 0.0000
  5    -40.4613699093  -0.000625641938 0.00174055  0.00015779  0.0050959 0.0000
                      *** Initiating the SOSCF procedure ***
                           *** Shutting down DIIS ***
                      *** Re-Reading the Fockian *** 
                      *** Removing any level shift *** 
ITER      Energy       Delta-E        Grad      Rot      Max-DP    RMS-DP
  6    -40.46141739  -0.0000474824  0.000379  0.000379  0.000651  0.000060
               *** Restarting incremental Fock matrix formation ***
  7    -40.46142085  -0.0000034564  0.000172  0.000374  0.000422  0.000039
  8    -40.46142079   0.0000000621  0.000154  0.000121  0.000165  0.000009
  9    -40.46142114  -0.0000003506  0.000012  0.000013  0.000035  0.000003
 10    -40.46142114  -0.0000000024  0.000003  0.000003  0.000006  0.000001
                 **** Energy Check signals convergence ****
              ***Rediagonalizing the Fockian in SOSCF/NRSCF***

               *****************************************************
               *                     SUCCESS                       *
               *           SCF CONVERGED AFTER  11 CYCLES          *
               *****************************************************

Setting up the final grid:

General Integration Accuracy     IntAcc      ...  4.670
Radial Grid Type                 RadialGrid  ... Gauss-Chebyshev
Angular Grid (max. acc.)         AngularGrid ... Lebedev-302
Angular grid pruning method      GridPruning ... 3 (G Style)
Weight generation scheme         WeightScheme... Becke
Basis function cutoff            BFCut       ...    1.0000e-11
Integration weight cutoff        WCut        ...    1.0000e-14
Grids for H and He will be reduced by one unit

# of grid points (after initial pruning)     ...  19788 (   0.0 sec)
# of grid points (after weights+screening)   ...  19309 (   0.0 sec)
nearest neighbour list constructed           ...    0.0 sec
Grid point re-assignment to atoms done       ...    0.0 sec
Grid point division into batches done        ...    0.1 sec
Reduced shell lists constructed in    0.2 sec

Total number of grid points                  ...    19309
Total number of batches                      ...      304
Average number of points per batch           ...       63
Average number of grid points per atom       ...     3862
Average number of shells per batch           ...    22.90 (84.83%)
Average number of basis functions per batch  ...    47.10 (85.64%)
Average number of large shells per batch     ...    21.28 (92.91%)
Average number of large basis fcns per batch ...    44.15 (93.73%)
Maximum spatial batch extension              ...  20.64, 20.64, 20.64 au
Average spatial batch extension              ...   3.17,  3.19,  3.34 au

Final grid set up in    0.2 sec
Final integration                            ... done (   0.2 sec)
Change in XC energy                          ...     0.000064256
Integrated number of electrons               ...     9.999987047
Previous integrated no of electrons          ...    10.000078968

----------------
TOTAL SCF ENERGY
----------------

Total Energy       :          -40.46135688 Eh           -1101.00950 eV

Components:
Nuclear Repulsion  :           13.68654577 Eh             372.42984 eV
Electronic Energy  :          -54.14790265 Eh           -1473.43934 eV
One Electron Energy:          -80.32064319 Eh           -2185.63582 eV
Two Electron Energy:           26.17274054 Eh             712.19648 eV

Virial components:
Potential Energy   :          -80.81118812 Eh           -2198.98422 eV
Kinetic Energy     :           40.34983124 Eh            1097.97473 eV
Virial Ratio       :            2.00276397


DFT components:
N(Alpha)           :        4.999993523372 electrons
N(Beta)            :        4.999993523372 electrons
N(Total)           :        9.999987046744 electrons
E(X)               :       -6.559610924187 Eh       
E(C)               :       -0.301463059945 Eh       
E(XC)              :       -6.861073984132 Eh       

---------------
SCF CONVERGENCE
---------------

  Last Energy change         ...    3.7303e-10  Tolerance :   1.0000e-08
  Last MAX-Density change    ...    1.2199e-07  Tolerance :   1.0000e-07
  Last RMS-Density change    ...    1.2608e-08  Tolerance :   5.0000e-09
  Last Orbital Gradient      ...    7.5585e-08  Tolerance :   1.0000e-05
  Last Orbital Rotation      ...    8.1995e-08  Tolerance :   1.0000e-05

             **** THE GBW FILE WAS UPDATED (opt.gbw) ****
             **** DENSITY FILE WAS UPDATED (opt.scfp.tmp) ****
             **** ENERGY FILE WAS UPDATED (opt.en.tmp) ****
----------------
ORBITAL ENERGIES
----------------

  NO   OCC          E(Eh)            E(eV) 
   0   2.0000      -9.853322      -268.1225 
   1   2.0000      -0.631991       -17.1973 
   2   2.0000      -0.349763        -9.5175 
   3   2.0000      -0.349697        -9.5157 
   4   2.0000      -0.349570        -9.5123 
   5   0.0000       0.036953         1.0055 
   6   0.0000       0.108614         2.9555 
   7   0.0000       0.109324         2.9749 
   8   0.0000       0.109721         2.9857 
   9   0.0000       0.180029         4.8988 
  10   0.0000       0.180187         4.9031 
  11   0.0000       0.183023         4.9803 
  12   0.0000       0.377591        10.2748 
  13   0.0000       0.443087        12.0570 
  14   0.0000       0.443217        12.0605 
  15   0.0000       0.444068        12.0837 
  16   0.0000       0.504871        13.7382 
  17   0.0000       0.548820        14.9342 
  18   0.0000       0.551651        15.0112 
  19   0.0000       0.888051        24.1651 
  20   0.0000       0.889445        24.2030 
  21   0.0000       0.889623        24.2079 
  22   0.0000       1.418966        38.6120 
  23   0.0000       1.420489        38.6535 
  24   0.0000       1.420921        38.6652 
  25   0.0000       1.426194        38.8087 
  26   0.0000       1.483591        40.3706 
  27   0.0000       1.483656        40.3723 
  28   0.0000       1.483718        40.3740 
  29   0.0000       1.889250        51.4091 
  30   0.0000       1.934374        52.6370 
  31   0.0000       1.935315        52.6626 
  32   0.0000       1.935614        52.6707 
  33   0.0000       2.183990        59.4294 
  34   0.0000       2.184370        59.4397 
  35   0.0000       2.184472        59.4425 
  36   0.0000       2.347835        63.8878 
  37   0.0000       2.350895        63.9711 
  38   0.0000       2.528748        68.8107 
  39   0.0000       2.529203        68.8231 
  40   0.0000       2.529378        68.8279 
  41   0.0000       2.905449        79.0613 
  42   0.0000       2.905861        79.0725 
  43   0.0000       2.968755        80.7839 
  44   0.0000       3.299232        89.7767 
  45   0.0000       3.299478        89.7834 
  46   0.0000       3.299844        89.7933 
  47   0.0000       3.428013        93.2810 
  48   0.0000       3.429109        93.3108 
  49   0.0000       3.429971        93.3343 
  50   0.0000       4.161151       113.2307 
  51   0.0000       4.161327       113.2355 
  52   0.0000       4.162034       113.2547 
  53   0.0000       4.425223       120.4164 
  54   0.0000      22.038705       599.7037 

                    ********************************
                    * MULLIKEN POPULATION ANALYSIS *
                    ********************************

-----------------------
MULLIKEN ATOMIC CHARGES
-----------------------
   0 C :   -0.501306
   1 H :    0.127801
   2 H :    0.128161
   3 H :    0.122138
   4 H :    0.123205
Sum of atomic charges:   -0.0000000

--------------------------------
MULLIKEN REDUCED ORBITAL CHARGES
--------------------------------
  0 C s       :     3.256733  s :     3.256733
      pz      :     1.077094  p :     3.228779
      px      :     1.076075
      py      :     1.075611
      dz2     :     0.000104  d :     0.014614
      dxz     :     0.004609
      dyz     :     0.004603
      dx2y2   :     0.003069
      dxy     :     0.002229
      f0      :    -0.000087  f :     0.001180
      f+1     :    -0.000020
      f-1     :    -0.000031
      f+2     :     0.000824
      f-2     :     0.000603
      f+3     :    -0.000060
      f-3     :    -0.000049
  1 H s       :     0.850798  s :     0.850798
      pz      :     0.007438  p :     0.021401
      px      :     0.008582
      py      :     0.005381
  2 H s       :     0.850423  s :     0.850423
      pz      :     0.007496  p :     0.021416
      px      :     0.005653
      py      :     0.008267
  3 H s       :     0.856243  s :     0.856243
      pz      :     0.006938  p :     0.021619
      px      :     0.005523
      py      :     0.009159
  4 H s       :     0.855182  s :     0.855182
      pz      :     0.006982  p :     0.021613
      px      :     0.008860
      py      :     0.005771


                     *******************************
                     * LOEWDIN POPULATION ANALYSIS *
                     *******************************

----------------------
LOEWDIN ATOMIC CHARGES
----------------------
   0 C :   -0.405072
   1 H :    0.101495
   2 H :    0.101451
   3 H :    0.101058
   4 H :    0.101068

-------------------------------
LOEWDIN REDUCED ORBITAL CHARGES
-------------------------------
  0 C s       :     2.879756  s :     2.879756
      pz      :     1.133756  p :     3.401999
      px      :     1.134139
      py      :     1.134104
      dz2     :     0.000887  d :     0.110928
      dxz     :     0.036754
      dyz     :     0.035895
      dx2y2   :     0.021532
      dxy     :     0.015859
      f0      :     0.002874  f :     0.012390
      f+1     :     0.001164
      f-1     :     0.001180
      f+2     :     0.001969
      f-2     :     0.001469
      f+3     :     0.001834
      f-3     :     0.001898
  1 H s       :     0.831059  s :     0.831059
      pz      :     0.023639  p :     0.067446
      px      :     0.027409
      py      :     0.016397
  2 H s       :     0.831106  s :     0.831106
      pz      :     0.023885  p :     0.067443
      px      :     0.017211
      py      :     0.026347
  3 H s       :     0.831497  s :     0.831497
      pz      :     0.021084  p :     0.067445
      px      :     0.016779
      py      :     0.029582
  4 H s       :     0.831504  s :     0.831504
      pz      :     0.021289  p :     0.067428
      px      :     0.028537
      py      :     0.017602


                      *****************************
                      * MAYER POPULATION ANALYSIS *
                      *****************************

  NA   - Mulliken gross atomic population
  ZA   - Total nuclear charge
  QA   - Mulliken gross atomic charge
  VA   - Mayer's total valence
  BVA  - Mayer's bonded valence
  FA   - Mayer's free valence

  ATOM       NA         ZA         QA         VA         BVA        FA
  0 C      6.5013     6.0000    -0.5013     3.9105     3.9105    -0.0000
  1 H      0.8722     1.0000     0.1278     0.9696     0.9696     0.0000
  2 H      0.8718     1.0000     0.1282     0.9693     0.9693    -0.0000
  3 H      0.8779     1.0000     0.1221     0.9718     0.9718    -0.0000
  4 H      0.8768     1.0000     0.1232     0.9715     0.9715    -0.0000

  Mayer bond orders larger than 0.1
B(  0-C ,  1-H ) :   0.9769 B(  0-C ,  2-H ) :   0.9772 B(  0-C ,  3-H ) :   0.9779 
B(  0-C ,  4-H ) :   0.9785 

-------
TIMINGS
-------

Total SCF time: 0 days 0 hours 0 min 3 sec 

Total time                  ....       3.317 sec
Sum of individual times     ....       3.205 sec  ( 96.6%)

Fock matrix formation       ....       2.747 sec  ( 82.8%)
  Split-RI-J                ....       1.659 sec  ( 60.4% of F)
  XC integration            ....       1.013 sec  ( 36.9% of F)
    Basis function eval.    ....       0.344 sec  ( 34.0% of XC)
    Density eval.           ....       0.101 sec  (  9.9% of XC)
    XC-Functional eval.     ....       0.100 sec  (  9.8% of XC)
    XC-Potential eval.      ....       0.130 sec  ( 12.9% of XC)
Diagonalization             ....       0.007 sec  (  0.2%)
Density matrix formation    ....       0.000 sec  (  0.0%)
Population analysis         ....       0.008 sec  (  0.3%)
Initial guess               ....       0.168 sec  (  5.1%)
Orbital Transformation      ....       0.000 sec  (  0.0%)
Orbital Orthonormalization  ....       0.000 sec  (  0.0%)
DIIS solution               ....       0.011 sec  (  0.3%)
SOSCF solution              ....       0.033 sec  (  1.0%)
Grid generation             ....       0.231 sec  (  7.0%)

-------------------------   --------------------
FINAL SINGLE POINT ENERGY       -40.461356882318
-------------------------   --------------------

------------------------------------------------------------------------------
                         ORCA SCF GRADIENT CALCULATION
------------------------------------------------------------------------------

Gradient of the Kohn-Sham DFT energy:
Kohn-Sham wavefunction type      ... RKS
Hartree-Fock exchange scaling    ...    0.000
Number of operators              ...    1
Number of atoms                  ...    5
Basis set dimensions             ...   55
Integral neglect threshold       ... 2.5e-11
Integral primitive cutoff        ... 2.5e-12

Nuclear repulsion gradient       ... done
One Electron Gradient            ... done
Pre-screening matrix             ... done
RI-J gradient                    ... done
Exchange-correlation gradient    ... done

------------------
CARTESIAN GRADIENT
------------------

   1   C   :   -0.000115993    0.000055030    0.000000953
   2   H   :   -0.013538682    0.004248461   -0.011351108
   3   H   :   -0.005413364   -0.013008815    0.011553390
   4   H   :    0.004847789    0.014683720    0.009394313
   5   H   :    0.014220249   -0.005978396   -0.009597547

Difference to translation invariance:
           :    0.0000000000    0.0000000000   -0.0000000000

Norm of the cartesian gradient     ...    0.0363271180
RMS gradient                       ...    0.0093796215
MAX gradient                       ...    0.0146837204

-------
TIMINGS
-------

Total SCF gradient time            ...        0.819 sec

One electron gradient       ....       0.007 sec  (  0.8%)
Prescreening matrices       ....       0.025 sec  (  3.0%)
RI-J Coulomb gradient       ....       0.138 sec  ( 16.9%)
XC gradient                 ....       0.494 sec  ( 60.3%)
------------------------------------------------------------------------------
                         ORCA GEOMETRY RELAXATION STEP
------------------------------------------------------------------------------

Reading the OPT-File                    .... done
Getting information on internals        .... done
Copying old internal coords+grads       .... done
Making the new internal coordinates     .... (new redundants).... done
Validating the new internal coordinates .... (new redundants).... done
Calculating the B-matrix                .... done
Calculating the G,G- and P matrices     .... done
Transforming gradient to internals      .... done
Projecting the internal gradient        .... done
Number of atoms                         ....   5
Number of internal coordinates          ....  10
Current Energy                          ....   -40.461356882 Eh
Current gradient norm                   ....     0.036327118 Eh/bohr
Maximum allowed component of the step   ....  0.300
Current trust radius                    ....  0.300
Evaluating the initial hessian          ....  (Almloef) done
Projecting the Hessian                  .... done
Forming the augmented Hessian           .... done
Diagonalizing the augmented Hessian     .... done
Last element of RFO vector              ....  0.995710253
Lowest eigenvalues of augmented Hessian:
 -0.003375681  0.297665717  0.297665877  0.297666106  0.297666308
Length of the computed step             ....  0.092924788
The final length of the internal step   ....  0.092924788
Converting the step to cartesian space:
 Initial RMS(Int)=    0.0293853982
Transforming coordinates:
 Iter   0:  RMS(Cart)=    0.0239931837 RMS(Int)=    0.0293853968
 Iter   1:  RMS(Cart)=    0.0000032851 RMS(Int)=    0.0000038135
 Iter   2:  RMS(Cart)=    0.0000000736 RMS(Int)=    0.0000000856
done
Storing new coordinates                 .... done

                                .--------------------.
          ----------------------|Geometry convergence|-------------------------
          Item                value                   Tolerance       Converged
          ---------------------------------------------------------------------
          RMS gradient        0.0114876235            0.0001000000      NO
          MAX gradient        0.0182210312            0.0003000000      NO
          RMS step            0.0293853982            0.0020000000      NO
          MAX step            0.0466091811            0.0040000000      NO
          ........................................................
          Max(Bonds)      0.0247      Max(Angles)    0.03
          Max(Dihed)        0.00      Max(Improp)    0.00
          ---------------------------------------------------------------------

The optimization has not yet converged - more geometry cycles are needed


    ---------------------------------------------------------------------------
                         Redundant Internal Coordinates
                            (Angstroem and degrees)

        Definition                    Value    dE/dq     Step     New-Value
    ----------------------------------------------------------------------------
     1. B(H   1,C   0)                1.0700 -0.018171  0.0246    1.0946   
     2. B(H   2,C   0)                1.0700 -0.018221  0.0247    1.0947   
     3. B(H   3,C   0)                1.0700 -0.018093  0.0245    1.0945   
     4. B(H   4,C   0)                1.0700 -0.018168  0.0246    1.0946   
     5. A(H   1,C   0,H   3)          109.47 -0.000017    0.00    109.47   
     6. A(H   2,C   0,H   3)          109.47  0.000047   -0.01    109.46   
     7. A(H   1,C   0,H   4)          109.47  0.000041   -0.01    109.46   
     8. A(H   2,C   0,H   4)          109.47  0.000015   -0.00    109.47   
     9. A(H   3,C   0,H   4)          109.47  0.000055   -0.01    109.46   
    10. A(H   1,C   0,H   2)          109.47 -0.000141    0.03    109.50   
    ----------------------------------------------------------------------------

         *************************************************************
         *                GEOMETRY OPTIMIZATION CYCLE   2            *
         *************************************************************
---------------------------------
CARTESIAN COORDINATES (ANGSTROEM)
---------------------------------
  C     -0.369277   -0.415545    0.000003
  H      0.448952   -0.669739    0.681197
  H     -0.039479    0.366383   -0.691451
  H     -0.661221   -1.304732   -0.567462
  H     -1.225866   -0.054108    0.577713

----------------------------
CARTESIAN COORDINATES (A.U.)
----------------------------
  NO LB      ZA    FRAG     MASS         X           Y           Z
   0 C     6.0000    0    12.011   -0.697832   -0.785266    0.000005
   1 H     1.0000    0     1.008    0.848397   -1.265623    1.287276
   2 H     1.0000    0     1.008   -0.074604    0.692364   -1.306652
   3 H     1.0000    0     1.008   -1.249527   -2.465586   -1.072349
   4 H     1.0000    0     1.008   -2.316551   -0.102249    1.091720

--------------------------------
INTERNAL COORDINATES (ANGSTROEM)
--------------------------------
 C      0   0   0     0.000000000000     0.00000000     0.00000000
 H      1   0   0     1.094595747207     0.00000000     0.00000000
 H      1   2   0     1.094662486704   109.49763771     0.00000000
 H      1   2   3     1.094486596594   109.47454314   120.00722320
 H      1   2   3     1.094591803941   109.46357613   239.99220583

---------------------------
INTERNAL COORDINATES (A.U.)
---------------------------
 C      0   0   0     0.000000000000     0.00000000     0.00000000
 H      1   0   0     2.068486189575     0.00000000     0.00000000
 H      1   2   0     2.068612308947   109.49763771     0.00000000
 H      1   2   3     2.068279924810   109.47454314   120.00722320
 H      1   2   3     2.068478737884   109.46357613   239.99220583

 One Electron integrals                  ... done
 Pre-screening matrix                    ... done

Diagonalization of the overlap matrix:
Smallest eigenvalue                        ... 1.480e-03
Time for diagonalization                   ...    0.001 sec
Threshold for overlap eigenvalues          ... 1.000e-08
Number of eigenvalues below threshold      ... 0
Time for construction of square roots      ...    0.002 sec
Total time needed                          ...    0.003 sec

-------------------
DFT GRID GENERATION
-------------------

General Integration Accuracy     IntAcc      ...  4.340
Radial Grid Type                 RadialGrid  ... Gauss-Chebyshev
Angular Grid (max. acc.)         AngularGrid ... Lebedev-110
Angular grid pruning method      GridPruning ... 3 (G Style)
Weight generation scheme         WeightScheme... Becke
Basis function cutoff            BFCut       ...    1.0000e-11
Integration weight cutoff        WCut        ...    1.0000e-14
Grids for H and He will be reduced by one unit

# of grid points (after initial pruning)     ...   4832 (   0.0 sec)
# of grid points (after weights+screening)   ...   4754 (   0.0 sec)
nearest neighbour list constructed           ...    0.0 sec
Grid point re-assignment to atoms done       ...    0.0 sec
Grid point division into batches done        ...    0.0 sec
Reduced shell lists constructed in    0.0 sec

Total number of grid points                  ...     4754
Total number of batches                      ...       76
Average number of points per batch           ...       62
Average number of grid points per atom       ...      951
Average number of shells per batch           ...    24.65 (91.29%)
Average number of basis functions per batch  ...    50.88 (92.51%)
Average number of large shells per batch     ...    23.10 (93.73%)
Average number of large basis fcns per batch ...    47.83 (94.00%)
Maximum spatial batch extension              ...  25.60, 19.37, 18.78 au
Average spatial batch extension              ...   5.62,  5.18,  4.98 au

Time for grid setup =    0.040 sec

--------------
SCF ITERATIONS
--------------
ITER       Energy         Delta-E        Max-DP      RMS-DP      [F,P]     Damp
               ***  Starting incremental Fock matrix formation  ***
  0    -40.4628811538   0.000000000000 0.00278867  0.00013088  0.0108753 0.7000
                      *** Initiating the SOSCF procedure ***
                      *** Re-Reading the Fockian *** 
                      *** Removing any level shift *** 
ITER      Energy       Delta-E        Grad      Rot      Max-DP    RMS-DP
  1    -40.46300203  -0.0001208755  0.001179  0.001179  0.007027  0.000327
               *** Restarting incremental Fock matrix formation ***
  2    -40.46314237  -0.0001403411  0.002059  0.004041  0.004721  0.000303
  3    -40.46306969   0.0000726827  0.002946  0.002516  0.002896  0.000184
  4    -40.46319804  -0.0001283477  0.000029  0.000040  0.000043  0.000004
  5    -40.46319805  -0.0000000137  0.000007  0.000007  0.000007  0.000001
                 **** Energy Check signals convergence ****
              ***Rediagonalizing the Fockian in SOSCF/NRSCF***

               *****************************************************
               *                     SUCCESS                       *
               *           SCF CONVERGED AFTER   6 CYCLES          *
               *****************************************************

Setting up the final grid:

General Integration Accuracy     IntAcc      ...  4.670
Radial Grid Type                 RadialGrid  ... Gauss-Chebyshev
Angular Grid (max. acc.)         AngularGrid ... Lebedev-302
Angular grid pruning method      GridPruning ... 3 (G Style)
Weight generation scheme         WeightScheme... Becke
Basis function cutoff            BFCut       ...    1.0000e-11
Integration weight cutoff        WCut        ...    1.0000e-14
Grids for H and He will be reduced by one unit

# of grid points (after initial pruning)     ...  19788 (   0.0 sec)
# of grid points (after weights+screening)   ...  19320 (   0.0 sec)
nearest neighbour list constructed           ...    0.0 sec
Grid point re-assignment to atoms done       ...    0.0 sec
Grid point division into batches done        ...    0.1 sec
Reduced shell lists constructed in    0.2 sec

Total number of grid points                  ...    19320
Total number of batches                      ...      304
Average number of points per batch           ...       63
Average number of grid points per atom       ...     3864
Average number of shells per batch           ...    22.88 (84.72%)
Average number of basis functions per batch  ...    47.06 (85.56%)
Average number of large shells per batch     ...    21.19 (92.63%)
Average number of large basis fcns per batch ...    44.02 (93.55%)
Maximum spatial batch extension              ...  20.64, 20.64, 20.64 au
Average spatial batch extension              ...   3.15,  3.17,  3.34 au

Final grid set up in    0.2 sec
Final integration                            ... done (   0.2 sec)
Change in XC energy                          ...     0.000079733
Integrated number of electrons               ...     9.999986693
Previous integrated no of electrons          ...    10.000114332
Total Energy       :          -40.46311832 Eh           -1101.05743 eV
  Last Energy change         ...   -9.5213e-12  Tolerance :   1.0000e-08
  Last MAX-Density change    ...    3.7950e-07  Tolerance :   1.0000e-07
             **** THE GBW FILE WAS UPDATED (opt.gbw) ****
             **** DENSITY FILE WAS UPDATED (opt.scfp.tmp) ****
             **** ENERGY FILE WAS UPDATED (opt.en.tmp) ****
Total SCF time: 0 days 0 hours 0 min 1 sec 

-------------------------   --------------------
FINAL SINGLE POINT ENERGY       -40.463118315766
-------------------------   --------------------

------------------------------------------------------------------------------
                         ORCA SCF GRADIENT CALCULATION
------------------------------------------------------------------------------

Gradient of the Kohn-Sham DFT energy:
Kohn-Sham wavefunction type      ... RKS
Hartree-Fock exchange scaling    ...    0.000
Number of operators              ...    1
Number of atoms                  ...    5
Basis set dimensions             ...   55
Integral neglect threshold       ... 2.5e-11
Integral primitive cutoff        ... 2.5e-12

Nuclear repulsion gradient       ... done
One Electron Gradient            ... done
Pre-screening matrix             ... done
RI-J gradient                    ... done
Exchange-correlation gradient    ... done

------------------
CARTESIAN GRADIENT
------------------

   1   C   :   -0.000071396   -0.000001072    0.000000533
   2   H   :   -0.000896760    0.000294929   -0.000765232
   3   H   :   -0.000331025   -0.000881095    0.000785834
   4   H   :    0.000336230    0.000981359    0.000620755
   5   H   :    0.000962951   -0.000394122   -0.000641890

Difference to translation invariance:
           :    0.0000000000    0.0000000000   -0.0000000000

Norm of the cartesian gradient     ...    0.0024374914
RMS gradient                       ...    0.0006293576
MAX gradient                       ...    0.0009813592

-------
TIMINGS
-------

Total SCF gradient time            ...        0.831 sec

One electron gradient       ....       0.006 sec  (  0.8%)
Prescreening matrices       ....       0.023 sec  (  2.8%)
RI-J Coulomb gradient       ....       0.143 sec  ( 17.2%)
XC gradient                 ....       0.494 sec  ( 59.4%)
------------------------------------------------------------------------------
                         ORCA GEOMETRY RELAXATION STEP
------------------------------------------------------------------------------

Reading the OPT-File                    .... done
Getting information on internals        .... done
Copying old internal coords+grads       .... done
Making the new internal coordinates     .... (new redundants).... done
Validating the new internal coordinates .... (new redundants).... done
Calculating the B-matrix                .... done
Calculating the G,G- and P matrices     .... done
Transforming gradient to internals      .... done
Projecting the internal gradient        .... done
Number of atoms                         ....   5
Number of internal coordinates          ....  10
Current Energy                          ....   -40.463118316 Eh
Current gradient norm                   ....     0.002437491 Eh/bohr
Maximum allowed component of the step   ....  0.300
Current trust radius                    ....  0.300
Updating the Hessian (BFGS)             .... done
Forming the augmented Hessian           .... done
Diagonalizing the augmented Hessian     .... done
Last element of RFO vector              ....  0.999977666
Lowest eigenvalues of augmented Hessian:
 -0.000016286  0.297654067  0.297665782  0.297665977  0.297666279
Length of the computed step             ....  0.006683464
The final length of the internal step   ....  0.006683464
Converting the step to cartesian space:
 Initial RMS(Int)=    0.0021134968
Transforming coordinates:
 Iter   0:  RMS(Cart)=    0.0017257148 RMS(Int)=    0.0021134970
 Iter   1:  RMS(Cart)=    0.0000001006 RMS(Int)=    0.0000001222
 Iter   2:  RMS(Cart)=    0.0000000002 RMS(Int)=    0.0000000002
done
Storing new coordinates                 .... done

                                .--------------------.
          ----------------------|Geometry convergence|-------------------------
          Item                value                   Tolerance       Converged
          ---------------------------------------------------------------------
          Energy change      -0.0017614334            0.0000050000      NO
          RMS gradient        0.0007706089            0.0001000000      NO
          MAX gradient        0.0012254834            0.0003000000      NO
          RMS step            0.0021134968            0.0020000000      NO
          MAX step            0.0033602254            0.0040000000      YES
          ........................................................
          Max(Bonds)      0.0018      Max(Angles)    0.01
          Max(Dihed)        0.00      Max(Improp)    0.00
          ---------------------------------------------------------------------

The optimization has not yet converged - more geometry cycles are needed


    ---------------------------------------------------------------------------
                         Redundant Internal Coordinates
                            (Angstroem and degrees)

        Definition                    Value    dE/dq     Step     New-Value
    ----------------------------------------------------------------------------
     1. B(H   1,C   0)                1.0946 -0.001215  0.0018    1.0964   
     2. B(H   2,C   0)                1.0947 -0.001225  0.0018    1.0964   
     3. B(H   3,C   0)                1.0945 -0.001209  0.0018    1.0962   
     4. B(H   4,C   0)                1.0946 -0.001222  0.0018    1.0964   
     5. A(H   1,C   0,H   3)          109.47 -0.000002    0.00    109.47   
     6. A(H   2,C   0,H   3)          109.46  0.000003   -0.00    109.46   
     7. A(H   1,C   0,H   4)          109.46  0.000004   -0.00    109.46   
     8. A(H   2,C   0,H   4)          109.47  0.000017   -0.00    109.46   
     9. A(H   3,C   0,H   4)          109.46  0.000033   -0.01    109.45   
    10. A(H   1,C   0,H   2)          109.50 -0.000055    0.01    109.51   
    ----------------------------------------------------------------------------

         *************************************************************
         *                GEOMETRY OPTIMIZATION CYCLE   3            *
         *************************************************************
---------------------------------
CARTESIAN COORDINATES (ANGSTROEM)
---------------------------------
  C     -0.369219   -0.415536    0.000002
  H      0.450265   -0.670199    0.682347
  H     -0.038999    0.367676   -0.692611
  H     -0.661704   -1.306137   -0.568351
  H     -1.227233   -0.053544    0.578614

----------------------------
CARTESIAN COORDINATES (A.U.)
----------------------------
  NO LB      ZA    FRAG     MASS         X           Y           Z
   0 C     6.0000    0    12.011   -0.697724   -0.785250    0.000004
   1 H     1.0000    0     1.008    0.850878   -1.266493    1.289449
   2 H     1.0000    0     1.008   -0.073697    0.694808   -1.308846
   3 H     1.0000    0     1.008   -1.250439   -2.468242   -1.074028
   4 H     1.0000    0     1.008   -2.319135   -0.101183    1.093421

--------------------------------
INTERNAL COORDINATES (ANGSTROEM)
--------------------------------
 C      0   0   0     0.000000000000     0.00000000     0.00000000
 H      1   0   0     1.096358690882     0.00000000     0.00000000
 H      1   2   0     1.096440641385   109.50903873     0.00000000
 H      1   2   3     1.096240443831   109.47488017   120.01369078
 H      1   2   3     1.096365635254   109.46278752   239.98999106

---------------------------
INTERNAL COORDINATES (A.U.)
---------------------------
 C      0   0   0     0.000000000000     0.00000000     0.00000000
 H      1   0   0     2.071817670311     0.00000000     0.00000000
 H      1   2   0     2.071972534318   109.50903873     0.00000000
 H      1   2   3     2.071594215768   109.47488017   120.01369078
 H      1   2   3     2.071830793273   109.46278752   239.98999106

 One Electron integrals                  ... done
 Pre-screening matrix                    ... done

Diagonalization of the overlap matrix:
Smallest eigenvalue                        ... 1.491e-03
Time for diagonalization                   ...    0.001 sec
Threshold for overlap eigenvalues          ... 1.000e-08
Number of eigenvalues below threshold      ... 0
Time for construction of square roots      ...    0.003 sec
Total time needed                          ...    0.004 sec

-------------------
DFT GRID GENERATION
-------------------

General Integration Accuracy     IntAcc      ...  4.340
Radial Grid Type                 RadialGrid  ... Gauss-Chebyshev
Angular Grid (max. acc.)         AngularGrid ... Lebedev-110
Angular grid pruning method      GridPruning ... 3 (G Style)
Weight generation scheme         WeightScheme... Becke
Basis function cutoff            BFCut       ...    1.0000e-11
Integration weight cutoff        WCut        ...    1.0000e-14
Grids for H and He will be reduced by one unit

# of grid points (after initial pruning)     ...   4832 (   0.0 sec)
# of grid points (after weights+screening)   ...   4754 (   0.0 sec)
nearest neighbour list constructed           ...    0.0 sec
Grid point re-assignment to atoms done       ...    0.0 sec
Grid point division into batches done        ...    0.0 sec
Reduced shell lists constructed in    0.0 sec

Total number of grid points                  ...     4754
Total number of batches                      ...       76
Average number of points per batch           ...       62
Average number of grid points per atom       ...      951
Average number of shells per batch           ...    24.65 (91.29%)
Average number of basis functions per batch  ...    50.88 (92.51%)
Average number of large shells per batch     ...    23.10 (93.73%)
Average number of large basis fcns per batch ...    47.83 (94.00%)
Maximum spatial batch extension              ...  25.60, 19.37, 18.79 au
Average spatial batch extension              ...   5.61,  5.17,  4.98 au

Time for grid setup =    0.038 sec

--------------
SCF ITERATIONS
--------------
ITER       Energy         Delta-E        Max-DP      RMS-DP      [F,P]     Damp
               ***  Starting incremental Fock matrix formation  ***
                      *** Initiating the SOSCF procedure ***
                      *** Re-Reading the Fockian *** 
                      *** Removing any level shift *** 
ITER      Energy       Delta-E        Grad      Rot      Max-DP    RMS-DP
  0    -40.46320574 -40.4632057351  0.000561  0.000561  0.000623  0.000030
               *** Restarting incremental Fock matrix formation ***
  1    -40.46320694  -0.0000012063  0.000187  0.000283  0.000450  0.000024
  2    -40.46320648   0.0000004590  0.000235  0.000193  0.000234  0.000015
  3    -40.46320731  -0.0000008281  0.000003  0.000002  0.000003  0.000000
                 **** Energy Check signals convergence ****
              ***Rediagonalizing the Fockian in SOSCF/NRSCF***

               *****************************************************
               *                     SUCCESS                       *
               *           SCF CONVERGED AFTER   4 CYCLES          *
               *****************************************************

Setting up the final grid:

General Integration Accuracy     IntAcc      ...  4.670
Radial Grid Type                 RadialGrid  ... Gauss-Chebyshev
Angular Grid (max. acc.)         AngularGrid ... Lebedev-302
Angular grid pruning method      GridPruning ... 3 (G Style)
Weight generation scheme         WeightScheme... Becke
Basis function cutoff            BFCut       ...    1.0000e-11
Integration weight cutoff        WCut        ...    1.0000e-14
Grids for H and He will be reduced by one unit

# of grid points (after initial pruning)     ...  19788 (   0.0 sec)
# of grid points (after weights+screening)   ...  19320 (   0.0 sec)
nearest neighbour list constructed           ...    0.0 sec
Grid point re-assignment to atoms done       ...    0.0 sec
Grid point division into batches done        ...    0.1 sec
Reduced shell lists constructed in    0.2 sec

Total number of grid points                  ...    19320
Total number of batches                      ...      304
Average number of points per batch           ...       63
Average number of grid points per atom       ...     3864
Average number of shells per batch           ...    22.88 (84.74%)
Average number of basis functions per batch  ...    47.06 (85.57%)
Average number of large shells per batch     ...    21.20 (92.65%)
Average number of large basis fcns per batch ...    44.03 (93.56%)
Maximum spatial batch extension              ...  20.64, 20.64, 20.64 au
Average spatial batch extension              ...   3.15,  3.17,  3.35 au

Final grid set up in    0.2 sec
Final integration                            ... done (   0.2 sec)
Change in XC energy                          ...     0.000080581
Integrated number of electrons               ...     9.999986866
Previous integrated no of electrons          ...    10.000116286
Total Energy       :          -40.46312673 Eh           -1101.05765 eV
  Last Energy change         ...    5.5044e-10  Tolerance :   1.0000e-08
  Last MAX-Density change    ...    5.6772e-07  Tolerance :   1.0000e-07
             **** THE GBW FILE WAS UPDATED (opt.gbw) ****
             **** DENSITY FILE WAS UPDATED (opt.scfp.tmp) ****
             **** ENERGY FILE WAS UPDATED (opt.en.tmp) ****
Total SCF time: 0 days 0 hours 0 min 1 sec 

-------------------------   --------------------
FINAL SINGLE POINT ENERGY       -40.463126729031
-------------------------   --------------------

------------------------------------------------------------------------------
                         ORCA SCF GRADIENT CALCULATION
------------------------------------------------------------------------------

Gradient of the Kohn-Sham DFT energy:
Kohn-Sham wavefunction type      ... RKS
Hartree-Fock exchange scaling    ...    0.000
Number of operators              ...    1
Number of atoms                  ...    5
Basis set dimensions             ...   55
Integral neglect threshold       ... 2.5e-11
Integral primitive cutoff        ... 2.5e-12

Nuclear repulsion gradient       ... done
One Electron Gradient            ... done
Pre-screening matrix             ... done
RI-J gradient                    ... done
Exchange-correlation gradient    ... done

------------------
CARTESIAN GRADIENT
------------------

   1   C   :   -0.000045315   -0.000007212    0.000000337
   2   H   :   -0.000058259    0.000024380   -0.000053845
   3   H   :   -0.000000878   -0.000065555    0.000060208
   4   H   :    0.000031080    0.000070696    0.000039672
   5   H   :    0.000073372   -0.000022309   -0.000046372

Difference to translation invariance:
           :   -0.0000000000    0.0000000000    0.0000000000

Norm of the cartesian gradient     ...    0.0001802379
RMS gradient                       ...    0.0000465372
MAX gradient                       ...    0.0000733724

-------
TIMINGS
-------

Total SCF gradient time            ...        0.809 sec

One electron gradient       ....       0.007 sec  (  0.8%)
Prescreening matrices       ....       0.025 sec  (  3.0%)
RI-J Coulomb gradient       ....       0.125 sec  ( 15.5%)
XC gradient                 ....       0.496 sec  ( 61.3%)
------------------------------------------------------------------------------
                         ORCA GEOMETRY RELAXATION STEP
------------------------------------------------------------------------------

Reading the OPT-File                    .... done
Getting information on internals        .... done
Copying old internal coords+grads       .... done
Making the new internal coordinates     .... (new redundants).... done
Validating the new internal coordinates .... (new redundants).... done
Calculating the B-matrix                .... done
Calculating the G,G- and P matrices     .... done
Transforming gradient to internals      .... done
Projecting the internal gradient        .... done
Number of atoms                         ....   5
Number of internal coordinates          ....  10
Current Energy                          ....   -40.463126729 Eh
Current gradient norm                   ....     0.000180238 Eh/bohr
Maximum allowed component of the step   ....  0.300
Current trust radius                    ....  0.300
Updating the Hessian (BFGS)             .... done
Forming the augmented Hessian           .... done
Diagonalizing the augmented Hessian     .... done
Last element of RFO vector              ....  0.999999861
Lowest eigenvalues of augmented Hessian:
 -0.000000093  0.296496150  0.297665801  0.297665975  0.297666313
Length of the computed step             ....  0.000527341
The final length of the internal step   ....  0.000527341
Converting the step to cartesian space:
 Initial RMS(Int)=    0.0001667599
Transforming coordinates:
 Iter   0:  RMS(Cart)=    0.0001358475 RMS(Int)=    0.0001667600
 Iter   1:  RMS(Cart)=    0.0000000043 RMS(Int)=    0.0000000055
done
Storing new coordinates                 .... done

                                .--------------------.
          ----------------------|Geometry convergence|-------------------------
          Item                value                   Tolerance       Converged
          ---------------------------------------------------------------------
          Energy change      -0.0000084133            0.0000050000      NO
          RMS gradient        0.0000556201            0.0001000000      YES
          MAX gradient        0.0000892601            0.0003000000      YES
          RMS step            0.0001667599            0.0020000000      YES
          MAX step            0.0002639175            0.0040000000      YES
          ........................................................
          Max(Bonds)      0.0001      Max(Angles)    0.01
          Max(Dihed)        0.00      Max(Improp)    0.00
          ---------------------------------------------------------------------

       Everything but the energy has converged. However, the energy
       appears to be close enough to convergence to make sure that the
       final evaluation at the new geometry represents the equilibrium energy.
       Convergence will therefore be signaled now


                    ***********************HURRAY********************
                    ***        THE OPTIMIZATION HAS CONVERGED     ***
                    *************************************************


    ---------------------------------------------------------------------------
                         Redundant Internal Coordinates

                          --- Optimized Parameters ---  
                            (Angstroem and degrees)

        Definition                    OldVal   dE/dq     Step     FinalVal
    ----------------------------------------------------------------------------
     1. B(H   1,C   0)                1.0964 -0.000083  0.0001    1.0965   
     2. B(H   2,C   0)                1.0964 -0.000085  0.0001    1.0966   
     3. B(H   3,C   0)                1.0962 -0.000086  0.0001    1.0964   
     4. B(H   4,C   0)                1.0964 -0.000089  0.0001    1.0965   
     5. A(H   1,C   0,H   3)          109.47 -0.000001    0.00    109.48   
     6. A(H   2,C   0,H   3)          109.46 -0.000000    0.00    109.46   
     7. A(H   1,C   0,H   4)          109.46  0.000001   -0.00    109.46   
     8. A(H   2,C   0,H   4)          109.46  0.000011   -0.00    109.46   
     9. A(H   3,C   0,H   4)          109.45  0.000020   -0.00    109.45   
    10. A(H   1,C   0,H   2)          109.51 -0.000030    0.01    109.52   
    ----------------------------------------------------------------------------
                 *******************************************************
                 *** FINAL ENERGY EVALUATION AT THE STATIONARY POINT ***
                 ***               (AFTER    3 CYCLES)               ***
                 *******************************************************
---------------------------------
CARTESIAN COORDINATES (ANGSTROEM)
---------------------------------
  C     -0.369185   -0.415530    0.000002
  H      0.450363   -0.670256    0.682456
  H     -0.038988    0.367789   -0.692715
  H     -0.661749   -1.306235   -0.568407
  H     -1.227331   -0.053508    0.578664

----------------------------
CARTESIAN COORDINATES (A.U.)
----------------------------
  NO LB      ZA    FRAG     MASS         X           Y           Z
   0 C     6.0000    0    12.011   -0.697658   -0.785238    0.000004
   1 H     1.0000    0     1.008    0.851063   -1.266601    1.289655
   2 H     1.0000    0     1.008   -0.073677    0.695021   -1.309041
   3 H     1.0000    0     1.008   -1.250525   -2.468427   -1.074134
   4 H     1.0000    0     1.008   -2.319319   -0.101115    1.093516

--------------------------------
INTERNAL COORDINATES (ANGSTROEM)
--------------------------------
 C      0   0   0     0.000000000000     0.00000000     0.00000000
 H      1   0   0     1.096488681075     0.00000000     0.00000000
 H      1   2   0     1.096574240185   109.51536965     0.00000000
 H      1   2   3     1.096375640140   109.47510367   120.01774152
 H      1   2   3     1.096505294396   109.46261045   239.98893837

---------------------------
INTERNAL COORDINATES (A.U.)
---------------------------
 C      0   0   0     0.000000000000     0.00000000     0.00000000
 H      1   0   0     2.072063316176     0.00000000     0.00000000
 H      1   2   0     2.072224999463   109.51536965     0.00000000
 H      1   2   3     2.071849699767   109.47510367   120.01774152
 H      1   2   3     2.072094710803   109.46261045   239.98893837

---------------------
BASIS SET INFORMATION
---------------------
There are 2 groups of distinct atoms

 Group   1 Type C   : 11s6p2d1f contracted to 5s3p2d1f pattern {62111/411/11/1}
 Group   2 Type H   : 5s1p contracted to 3s1p pattern {311/1}

Atom   0C    basis set group =>   1
Atom   1H    basis set group =>   2
Atom   2H    basis set group =>   2
Atom   3H    basis set group =>   2
Atom   4H    basis set group =>   2
-------------------------------
AUXILIARY BASIS SET INFORMATION
-------------------------------
There are 2 groups of distinct atoms

 Group   1 Type C   : 12s5p4d2f1g contracted to 6s4p3d1f1g pattern {711111/2111/211/2/1}
 Group   2 Type H   : 5s2p1d contracted to 3s1p1d pattern {311/2/1}

Atom   0C    basis set group =>   1
Atom   1H    basis set group =>   2
Atom   2H    basis set group =>   2
Atom   3H    basis set group =>   2
Atom   4H    basis set group =>   2
------------------------------------------------------------------------------
                           ORCA GTO INTEGRAL CALCULATION
                           -- RI-GTO INTEGRALS CHOSEN --
------------------------------------------------------------------------------

                         BASIS SET STATISTICS AND STARTUP INFO

Gaussian basis set:
 # of primitive gaussian shells          ...   44
 # of primitive gaussian functions       ...   78
 # of contracted shells                  ...   27
 # of contracted basis functions         ...   55
 Highest angular momentum                ...    3
 Maximum contraction depth               ...    6
Auxiliary gaussian basis set:
 # of primitive gaussian shells          ...   56
 # of primitive gaussian functions       ...  134
 # of contracted shells                  ...   35
 # of contracted aux-basis functions     ...   93
 Highest angular momentum                ...    4
 Maximum contraction depth               ...    7
Ratio of auxiliary to basis functions    ...  1.69
Integral package used                  ... LIBINT
 One Electron integrals                  ... done
 Ordering auxiliary basis shells         ... done
 Integral threshhold             Thresh  ...  2.500e-11
 Primitive cut-off               TCut    ...  2.500e-12
 Pre-screening matrix                    ... done
 Shell pair data                         ... 
 Ordering of the shell pairs             ... done (   0.000 sec) 378 of 378 pairs
 Determination of significant pairs      ... done (   0.000 sec)
 Creation of shell pair data             ... done (   0.000 sec)
 Storage of shell pair data              ... done (   0.002 sec)
 Shell pair data done in (   0.003 sec)
 Computing two index integrals           ... done
 Cholesky decomposition of the V-matrix  ... done


Timings:
 Total evaluation time                   ...   0.224 sec (  0.004 min)
 One electron matrix time                ...   0.040 sec (  0.001 min) = 18.0%
 Schwartz matrix evaluation time         ...   0.133 sec (  0.002 min) = 59.4%
 Two index repulsion integral time       ...   0.002 sec (  0.000 min) =  1.0%
 Cholesky decomposition of V             ...   0.002 sec (  0.000 min) =  0.8%
 Three index repulsion integral time     ...   0.000 sec (  0.000 min) =  0.0%

-------------------------------------------------------------------------------
                                 ORCA SCF
-------------------------------------------------------------------------------

------------
SCF SETTINGS
------------
Hamiltonian:
 Density Functional     Method          .... DFT(GTOs)
 Exchange Functional    Exchange        .... PBE
   PBE kappa parameter   XKappa         ....  0.804000
   PBE mue parameter    XMuePBE         ....  0.219520
 Correlation Functional Correlation     .... PBE
   PBE beta parameter  CBetaPBE         ....  0.066725
 LDA part of GGA corr.  LDAOpt          .... PW91-LDA
 Gradients option       PostSCFGGA      .... off
   NL short-range parameter             ....  6.400000
 RI-approximation to the Coulomb term is turned on
   Number of auxiliary basis functions  .... 93


General Settings:
 Integral files         IntName         .... opt
 Hartree-Fock type      HFTyp           .... RHF
 Total Charge           Charge          ....    0
 Multiplicity           Mult            ....    1
 Number of Electrons    NEL             ....   10
 Basis Dimension        Dim             ....   55
 Nuclear Repulsion      ENuc            ....     13.3559159528 Eh

Convergence Acceleration:
 DIIS                   CNVDIIS         .... on
   Start iteration      DIISMaxIt       ....    12
   Startup error        DIISStart       ....  0.200000
   # of expansion vecs  DIISMaxEq       ....     5
   Bias factor          DIISBfac        ....   1.050
   Max. coefficient     DIISMaxC        ....  10.000
 Newton-Raphson         CNVNR           .... off
 SOSCF                  CNVSOSCF        .... on
   Start iteration      SOSCFMaxIt      ....   150
   Startup grad/error   SOSCFStart      ....  0.003300
 Level Shifting         CNVShift        .... on
   Level shift para.    LevelShift      ....    0.2500
   Turn off err/grad.   ShiftErr        ....    0.0010
 Zerner damping         CNVZerner       .... off
 Static damping         CNVDamp         .... on
   Fraction old density DampFac         ....    0.7000
   Max. Damping (<1)    DampMax         ....    0.9800
   Min. Damping (>=0)   DampMin         ....    0.0000
   Turn off err/grad.   DampErr         ....    0.1000
 Fernandez-Rico         CNVRico         .... off

SCF Procedure:
 Maximum # iterations   MaxIter         ....   125
 SCF integral mode      SCFMode         .... Direct
   Integral package                     .... LIBINT
 Reset frequeny         DirectResetFreq ....    20
 Integral Threshold     Thresh          ....  2.500e-11 Eh
 Primitive CutOff       TCut            ....  2.500e-12 Eh

Convergence Tolerance:
 Convergence Check Mode ConvCheckMode   .... Total+1el-Energy
 Convergence forced     ConvForced      .... 0
 Energy Change          TolE            ....  1.000e-08 Eh
 1-El. energy change                    ....  1.000e-05 Eh
 Orbital Gradient       TolG            ....  1.000e-05
 Orbital Rotation angle TolX            ....  1.000e-05
 DIIS Error             TolErr          ....  5.000e-07


Diagonalization of the overlap matrix:
Smallest eigenvalue                        ... 1.492e-03
Time for diagonalization                   ...    0.001 sec
Threshold for overlap eigenvalues          ... 1.000e-08
Number of eigenvalues below threshold      ... 0
Time for construction of square roots      ...    0.005 sec
Total time needed                          ...    0.006 sec

---------------------
INITIAL GUESS: MOREAD
---------------------
Guess MOs are being read from file: opt.gbw
Input Geometry matches current geometry (good)
Input basis set matches current basis set (good)
MOs were renormalized
MOs were reorthogonalized (Cholesky)
                      ------------------
                      INITIAL GUESS DONE (   0.0 sec)
                      ------------------
-------------------
DFT GRID GENERATION
-------------------

General Integration Accuracy     IntAcc      ...  4.340
Radial Grid Type                 RadialGrid  ... Gauss-Chebyshev
Angular Grid (max. acc.)         AngularGrid ... Lebedev-110
Angular grid pruning method      GridPruning ... 3 (G Style)
Weight generation scheme         WeightScheme... Becke
Basis function cutoff            BFCut       ...    1.0000e-11
Integration weight cutoff        WCut        ...    1.0000e-14
Grids for H and He will be reduced by one unit

# of grid points (after initial pruning)     ...   4832 (   0.0 sec)
# of grid points (after weights+screening)   ...   4754 (   0.0 sec)
nearest neighbour list constructed           ...    0.0 sec
Grid point re-assignment to atoms done       ...    0.0 sec
Grid point division into batches done        ...    0.0 sec
Reduced shell lists constructed in    0.0 sec

Total number of grid points                  ...     4754
Total number of batches                      ...       76
Average number of points per batch           ...       62
Average number of grid points per atom       ...      951
Average number of shells per batch           ...    24.64 (91.25%)
Average number of basis functions per batch  ...    50.87 (92.49%)
Average number of large shells per batch     ...    23.10 (93.78%)
Average number of large basis fcns per batch ...    47.83 (94.03%)
Maximum spatial batch extension              ...  25.60, 19.37, 18.79 au
Average spatial batch extension              ...   5.61,  5.17,  4.98 au

Time for grid setup =    0.041 sec

--------------
SCF ITERATIONS
--------------
ITER       Energy         Delta-E        Max-DP      RMS-DP      [F,P]     Damp
               ***  Starting incremental Fock matrix formation  ***
                      *** Initiating the SOSCF procedure ***
                      *** Re-Reading the Fockian *** 
                      *** Removing any level shift *** 
ITER      Energy       Delta-E        Grad      Rot      Max-DP    RMS-DP
  0    -40.46320735 -40.4632073536  0.000043  0.000043  0.000047  0.000002
               *** Restarting incremental Fock matrix formation ***
  1    -40.46320736  -0.0000000075  0.000014  0.000022  0.000034  0.000002
  2    -40.46320736   0.0000000021  0.000018  0.000015  0.000018  0.000001
                 **** Energy Check signals convergence ****
              ***Rediagonalizing the Fockian in SOSCF/NRSCF***

               *****************************************************
               *                     SUCCESS                       *
               *           SCF CONVERGED AFTER   3 CYCLES          *
               *****************************************************

Setting up the final grid:

General Integration Accuracy     IntAcc      ...  4.670
Radial Grid Type                 RadialGrid  ... Gauss-Chebyshev
Angular Grid (max. acc.)         AngularGrid ... Lebedev-302
Angular grid pruning method      GridPruning ... 3 (G Style)
Weight generation scheme         WeightScheme... Becke
Basis function cutoff            BFCut       ...    1.0000e-11
Integration weight cutoff        WCut        ...    1.0000e-14
Grids for H and He will be reduced by one unit

# of grid points (after initial pruning)     ...  19788 (   0.0 sec)
# of grid points (after weights+screening)   ...  19320 (   0.0 sec)
nearest neighbour list constructed           ...    0.0 sec
Grid point re-assignment to atoms done       ...    0.0 sec
Grid point division into batches done        ...    0.1 sec
Reduced shell lists constructed in    0.2 sec

Total number of grid points                  ...    19320
Total number of batches                      ...      304
Average number of points per batch           ...       63
Average number of grid points per atom       ...     3864
Average number of shells per batch           ...    22.87 (84.71%)
Average number of basis functions per batch  ...    47.06 (85.56%)
Average number of large shells per batch     ...    21.20 (92.69%)
Average number of large basis fcns per batch ...    44.03 (93.58%)
Maximum spatial batch extension              ...  20.64, 20.64, 20.64 au
Average spatial batch extension              ...   3.15,  3.17,  3.35 au

Final grid set up in    0.2 sec
Final integration                            ... done (   0.2 sec)
Change in XC energy                          ...     0.000080620
Integrated number of electrons               ...     9.999986884
Previous integrated no of electrons          ...    10.000116429

----------------
TOTAL SCF ENERGY
----------------

Total Energy       :          -40.46312674 Eh           -1101.05766 eV

Components:
Nuclear Repulsion  :           13.35591595 Eh             363.43295 eV
Electronic Energy  :          -53.81904270 Eh           -1464.49061 eV
One Electron Energy:          -79.70407239 Eh           -2168.85807 eV
Two Electron Energy:           25.88502970 Eh             704.36747 eV

Virial components:
Potential Energy   :          -80.67203582 Eh           -2195.19770 eV
Kinetic Energy     :           40.20890907 Eh            1094.14004 eV
Virial Ratio       :            2.00632242


DFT components:
N(Alpha)           :        4.999993441882 electrons
N(Beta)            :        4.999993441882 electrons
N(Total)           :        9.999986883763 electrons
E(X)               :       -6.523292403273 Eh       
E(C)               :       -0.299875709387 Eh       
E(XC)              :       -6.823168112660 Eh       

---------------
SCF CONVERGENCE
---------------

  Last Energy change         ...   -4.4810e-09  Tolerance :   1.0000e-08
  Last MAX-Density change    ...    2.5142e-07  Tolerance :   1.0000e-07
  Last RMS-Density change    ...    1.9718e-08  Tolerance :   5.0000e-09
  Last Orbital Gradient      ...    2.4214e-07  Tolerance :   1.0000e-05
  Last Orbital Rotation      ...    2.1750e-07  Tolerance :   1.0000e-05

             **** THE GBW FILE WAS UPDATED (opt.gbw) ****
             **** DENSITY FILE WAS UPDATED (opt.scfp.tmp) ****
             **** ENERGY FILE WAS UPDATED (opt.en.tmp) ****
----------------
ORBITAL ENERGIES
----------------

  NO   OCC          E(Eh)            E(eV) 
   0   2.0000      -9.864691      -268.4319 
   1   2.0000      -0.624562       -16.9952 
   2   2.0000      -0.345952        -9.4138 
   3   2.0000      -0.345856        -9.4112 
   4   2.0000      -0.345842        -9.4108 
   5   0.0000       0.033220         0.9040 
   6   0.0000       0.102621         2.7925 
   7   0.0000       0.103361         2.8126 
   8   0.0000       0.103708         2.8220 
   9   0.0000       0.180894         4.9224 
  10   0.0000       0.181014         4.9256 
  11   0.0000       0.183806         5.0016 
  12   0.0000       0.375110        10.2073 
  13   0.0000       0.431941        11.7537 
  14   0.0000       0.432057        11.7569 
  15   0.0000       0.432890        11.7795 
  16   0.0000       0.482128        13.1194 
  17   0.0000       0.548919        14.9368 
  18   0.0000       0.551824        15.0159 
  19   0.0000       0.887313        24.1450 
  20   0.0000       0.888597        24.1800 
  21   0.0000       0.888893        24.1880 
  22   0.0000       1.421561        38.6826 
  23   0.0000       1.423208        38.7275 
  24   0.0000       1.423582        38.7376 
  25   0.0000       1.434375        39.0313 
  26   0.0000       1.462912        39.8078 
  27   0.0000       1.463096        39.8129 
  28   0.0000       1.463114        39.8133 
  29   0.0000       1.897009        51.6202 
  30   0.0000       1.922731        52.3202 
  31   0.0000       1.923566        52.3429 
  32   0.0000       1.923809        52.3495 
  33   0.0000       2.166307        58.9482 
  34   0.0000       2.166565        58.9552 
  35   0.0000       2.166859        58.9632 
  36   0.0000       2.335955        63.5646 
  37   0.0000       2.338945        63.6459 
  38   0.0000       2.495947        67.9182 
  39   0.0000       2.496717        67.9391 
  40   0.0000       2.496813        67.9417 
  41   0.0000       2.884413        78.4889 
  42   0.0000       2.885306        78.5132 
  43   0.0000       2.921187        79.4895 
  44   0.0000       3.272068        89.0375 
  45   0.0000       3.272151        89.0398 
  46   0.0000       3.273026        89.0636 
  47   0.0000       3.410107        92.7937 
  48   0.0000       3.411176        92.8228 
  49   0.0000       3.411466        92.8307 
  50   0.0000       4.097652       111.5028 
  51   0.0000       4.098297       111.5203 
  52   0.0000       4.098933       111.5376 
  53   0.0000       4.374766       119.0434 
  54   0.0000      21.891743       595.7046 

                    ********************************
                    * MULLIKEN POPULATION ANALYSIS *
                    ********************************

-----------------------
MULLIKEN ATOMIC CHARGES
-----------------------
   0 C :   -0.503943
   1 H :    0.128097
   2 H :    0.128602
   3 H :    0.123056
   4 H :    0.124187
Sum of atomic charges:   -0.0000000

--------------------------------
MULLIKEN REDUCED ORBITAL CHARGES
--------------------------------
  0 C s       :     3.274436  s :     3.274436
      pz      :     1.072213  p :     3.213196
      px      :     1.070653
      py      :     1.070330
      dz2     :     0.000113  d :     0.015065
      dxz     :     0.004727
      dyz     :     0.004723
      dx2y2   :     0.003206
      dxy     :     0.002296
      f0      :    -0.000070  f :     0.001246
      f+1     :    -0.000014
      f-1     :    -0.000026
      f+2     :     0.000839
      f-2     :     0.000611
      f+3     :    -0.000053
      f-3     :    -0.000042
  1 H s       :     0.851387  s :     0.851387
      pz      :     0.007185  p :     0.020516
      px      :     0.008343
      py      :     0.004988
  2 H s       :     0.850890  s :     0.850890
      pz      :     0.007245  p :     0.020508
      px      :     0.005245
      py      :     0.008018
  3 H s       :     0.856272  s :     0.856272
      pz      :     0.006592  p :     0.020672
      px      :     0.005129
      py      :     0.008950
  4 H s       :     0.855160  s :     0.855160
      pz      :     0.006643  p :     0.020653
      px      :     0.008640
      py      :     0.005371


                     *******************************
                     * LOEWDIN POPULATION ANALYSIS *
                     *******************************

----------------------
LOEWDIN ATOMIC CHARGES
----------------------
   0 C :   -0.422149
   1 H :    0.105728
   2 H :    0.105718
   3 H :    0.105330
   4 H :    0.105374

-------------------------------
LOEWDIN REDUCED ORBITAL CHARGES
-------------------------------
  0 C s       :     2.905395  s :     2.905395
      pz      :     1.131614  p :     3.395417
      px      :     1.131918
      py      :     1.131885
      dz2     :     0.000887  d :     0.109923
      dxz     :     0.036417
      dyz     :     0.035584
      dx2y2   :     0.021339
      dxy     :     0.015695
      f0      :     0.002697  f :     0.011413
      f+1     :     0.001091
      f-1     :     0.001109
      f+2     :     0.001727
      f-2     :     0.001288
      f+3     :     0.001721
      f-3     :     0.001780
  1 H s       :     0.831047  s :     0.831047
      pz      :     0.022288  p :     0.063225
      px      :     0.026185
      py      :     0.014752
  2 H s       :     0.831075  s :     0.831075
      pz      :     0.022538  p :     0.063207
      px      :     0.015584
      py      :     0.025085
  3 H s       :     0.831428  s :     0.831428
      pz      :     0.019625  p :     0.063243
      px      :     0.015158
      py      :     0.028459
  4 H s       :     0.831422  s :     0.831422
      pz      :     0.019830  p :     0.063204
      px      :     0.027372
      py      :     0.016002


                      *****************************
                      * MAYER POPULATION ANALYSIS *
                      *****************************

  NA   - Mulliken gross atomic population
  ZA   - Total nuclear charge
  QA   - Mulliken gross atomic charge
  VA   - Mayer's total valence
  BVA  - Mayer's bonded valence
  FA   - Mayer's free valence

  ATOM       NA         ZA         QA         VA         BVA        FA
  0 C      6.5039     6.0000    -0.5039     3.9039     3.9039     0.0000
  1 H      0.8719     1.0000     0.1281     0.9693     0.9693    -0.0000
  2 H      0.8714     1.0000     0.1286     0.9690     0.9690     0.0000
  3 H      0.8769     1.0000     0.1231     0.9713     0.9713     0.0000
  4 H      0.8758     1.0000     0.1242     0.9710     0.9710     0.0000

  Mayer bond orders larger than 0.1
B(  0-C ,  1-H ) :   0.9754 B(  0-C ,  2-H ) :   0.9755 B(  0-C ,  3-H ) :   0.9763 
B(  0-C ,  4-H ) :   0.9767 

-------
TIMINGS
-------

Total SCF time: 0 days 0 hours 0 min 1 sec 

Total time                  ....       1.249 sec
Sum of individual times     ....       1.203 sec  ( 96.3%)

Fock matrix formation       ....       0.922 sec  ( 73.8%)
  Split-RI-J                ....       0.517 sec  ( 56.0% of F)
  XC integration            ....       0.379 sec  ( 41.1% of F)
    Basis function eval.    ....       0.168 sec  ( 44.3% of XC)
    Density eval.           ....       0.049 sec  ( 12.9% of XC)
    XC-Functional eval.     ....       0.048 sec  ( 12.8% of XC)
    XC-Potential eval.      ....       0.067 sec  ( 17.8% of XC)
Diagonalization             ....       0.001 sec  (  0.1%)
Density matrix formation    ....       0.000 sec  (  0.0%)
Population analysis         ....       0.007 sec  (  0.6%)
Initial guess               ....       0.001 sec  (  0.1%)
Orbital Transformation      ....       0.000 sec  (  0.0%)
Orbital Orthonormalization  ....       0.000 sec  (  0.0%)
DIIS solution               ....       0.000 sec  (  0.0%)
SOSCF solution              ....       0.031 sec  (  2.5%)
Grid generation             ....       0.240 sec  ( 19.2%)

-------------------------   --------------------
FINAL SINGLE POINT ENERGY       -40.463126743089
-------------------------   --------------------

                                *** OPTIMIZATION RUN DONE ***

                            ***************************************
                            *     ORCA property calculations      *
                            ***************************************

                                    ---------------------
                                    Active property flags
                                    ---------------------
   (+) Dipole Moment


------------------------------------------------------------------------------
                       ORCA ELECTRIC PROPERTIES CALCULATION
------------------------------------------------------------------------------

Dipole Moment Calculation                       ... on
Quadrupole Moment Calculation                   ... off
Polarizability Calculation                      ... off
GBWName                                         ... opt.gbw
Electron density file                           ... opt.scfp.tmp
The origin for moment calculation is the CENTER OF MASS  = (-0.697773, -0.785248  0.000003)

-------------
DIPOLE MOMENT
-------------
                                X             Y             Z
Electronic contribution:     -0.00122      -0.00207      -0.00020
Nuclear contribution   :     -0.00068      -0.00006      -0.00001
                        -----------------------------------------
Total Dipole Moment    :     -0.00190      -0.00214      -0.00021
                        -----------------------------------------
Magnitude (a.u.)       :      0.00286
Magnitude (Debye)      :      0.00728


Timings for individual modules:

Sum of individual times         ...       24.428 sec (=   0.407 min)
GTO integral calculation        ...        5.202 sec (=   0.087 min)  21.3 %
SCF iterations                  ...       12.162 sec (=   0.203 min)  49.8 %
SCF Gradient evaluation         ...        6.039 sec (=   0.101 min)  24.7 %
Geometry relaxation             ...        1.025 sec (=   0.017 min)   4.2 %
                             ****ORCA TERMINATED NORMALLY****
TOTAL RUN TIME: 0 days 0 hours 0 minutes 37 seconds 411 msec
