
                                 *****************
                                 * O   R   C   A *
                                 *****************

           --- An Ab Initio, DFT and Semiempirical electronic structure package ---

                  #######################################################
                  #                        -***-                        #
                  #  Department of molecular theory and spectroscopy    #
                  #              Directorship: Frank Neese              #
                  # Max Planck Institute for Chemical Energy Conversion #
                  #                  D-45470 Muelheim/Ruhr              #
                  #                       Germany                       #
                  #                                                     #
                  #                  All rights reserved                #
                  #                        -***-                        #
                  #######################################################


                         Program Version 4.0.1.2 - RELEASE -


 With contributions from (in alphabetic order):
   Daniel Aravena         : Magnetic Properties
   Michael Atanasov       : Ab Initio Ligand Field Theory
   Ute Becker             : Parallelization
   Martin Brehm           : Molecular dynamics
   Dmytro Bykov           : SCF Hessian
   Vijay G. Chilkuri      : MRCI spin determinant printing
   Dipayan Datta          : RHF DLPNO-CCSD density
   Achintya Kumar Dutta   : EOM-CC, STEOM-CC
   Dmitry Ganyushin       : Spin-Orbit,Spin-Spin,Magnetic field MRCI
   Yang Guo               : DLPNO-NEVPT2, CIM, IAO-localization
   Andreas Hansen         : Spin unrestricted coupled pair/coupled cluster methods
   Lee Huntington         : MR-EOM, pCC
   Robert Izsak           : Overlap fitted RIJCOSX, COSX-SCS-MP3, EOM
   Christian Kollmar      : KDIIS, OOCD, Brueckner-CCSD(T), CCSD density
   Simone Kossmann        : Meta GGA functionals, TD-DFT gradient, OOMP2, MP2 Hessian
   Martin Krupicka        : AUTO-CI
   Dagmar Lenk            : GEPOL surface
   Dimitrios Liakos       : Extrapolation schemes; parallel MDCI
   Dimitrios Manganas     : ROCIS; embedding schemes
   Dimitrios Pantazis     : SARC Basis sets
   Taras Petrenko         : DFT Hessian,TD-DFT gradient, ASA, ECA, R-Raman, ABS, FL, XAS/XES, NRVS
   Peter Pinski           : DLPNO-MP2
   Christoph Reimann      : Effective Core Potentials
   Marius Retegan         : Local ZFS, SOC
   Christoph Riplinger    : Optimizer, TS searches, QM/MM, DLPNO-CCSD(T), (RO)-DLPNO pert. Triples
   Tobias Risthaus        : Range-separated hybrids, TD-DFT gradient, RPA, STAB
   Michael Roemelt        : Restricted open shell CIS
   Masaaki Saitow         : Open-shell DLPNO
   Barbara Sandhoefer     : DKH picture change effects
   Kantharuban Sivalingam : CASSCF convergence, NEVPT2, FIC-MRCI
   Georgi Stoychev        : AutoAux
   Boris Wezisla          : Elementary symmetry handling
   Frank Wennmohs         : Technical directorship


 We gratefully acknowledge several colleagues who have allowed us to
 interface, adapt or use parts of their codes:
   Stefan Grimme, W. Hujo, H. Kruse,             : VdW corrections, initial TS optimization,
                  C. Bannwarth                     DFT functionals, gCP, sTDA/sTD-DF
   Ed Valeev                                     : LibInt (2-el integral package), F12 methods
   Garnet Chan, S. Sharma, J. Yang, R. Olivares  : DMRG
   Ulf Ekstrom                                   : XCFun DFT Library
   Mihaly Kallay                                 : mrcc  (arbitrary order and MRCC methods)
   Andreas Klamt, Michael Diedenhofen            : otool_cosmo (COSMO solvation model)
   Jiri Pittner, Ondrej Demel                    : Mk-CCSD
   Frank Weinhold                                : gennbo (NPA and NBO analysis)
   Christopher J. Cramer and Donald G. Truhlar   : smd solvation model


 Your calculation uses the libint2 library for the computation of 2-el integrals
 For citations please refer to: http://libint.valeyev.net

 This ORCA versions uses:
   CBLAS   interface :  Fast vector & matrix operations
   LAPACKE interface :  Fast linear algebra routines
   SCALAPACK package :  Parallel linear algebra routines




*****************************************
The coordinations will be read from file: BF3.xyz
*****************************************


Your calculation utilizes the basis: def2-TZVP
   F. Weigend and R. Ahlrichs, Phys. Chem. Chem. Phys. 7, 3297 (2005).

Your calculation utilizes the auxiliary basis: def2/J
   F. Weigend, Phys. Chem. Chem. Phys. 8, 1057 (2006).

================================================================================
                                        WARNINGS
                       Please study these warnings very carefully!
================================================================================

Warning: TCutStore was < 0. Adjusted to Thresh (uncritical)

INFO   : the flag for use of LIBINT has been found!

================================================================================
                                       INPUT FILE
================================================================================
NAME = freq.inp
|  1> # avogadro generated ORCA input file 
|  2> # Basic Mode
|  3> # 
|  4> ! PBE FREQ def2-TZVP
|  5> 
|  6> * xyzfile 0 1 BF3.xyz
|  7> 
|  8> 
|  9>                          ****END OF INPUT****
================================================================================

                       ****************************
                       * Single Point Calculation *
                       ****************************

---------------------------------
CARTESIAN COORDINATES (ANGSTROEM)
---------------------------------
  B     -3.185880    1.031180   -0.000000
  F     -2.189520    1.356070    0.520200
  F     -3.736020    0.243930    0.668200
  F     -3.872820    1.966990   -0.145900

----------------------------
CARTESIAN COORDINATES (A.U.)
----------------------------
  NO LB      ZA    FRAG     MASS         X           Y           Z
   0 B     5.0000    0    10.810   -6.020441    1.948648   -0.000000
   1 F     9.0000    0    18.998   -4.137593    2.562601    0.983036
   2 F     9.0000    0    18.998   -7.060055    0.460961    1.262715
   3 F     9.0000    0    18.998   -7.318569    3.717072   -0.275711

--------------------------------
INTERNAL COORDINATES (ANGSTROEM)
--------------------------------
 B      0   0   0     0.000000000000     0.00000000     0.00000000
 F      1   0   0     1.169997778502     0.00000000     0.00000000
 F      1   2   0     1.170003342773   109.47162310     0.00000000
 F      1   2   3     1.170005867378   109.47122000   119.99970447

---------------------------
INTERNAL COORDINATES (A.U.)
---------------------------
 B      0   0   0     0.000000000000     0.00000000     0.00000000
 F      1   0   0     2.210975378665     0.00000000     0.00000000
 F      1   2   0     2.210985893613   109.47162310     0.00000000
 F      1   2   3     2.210990664426   109.47122000   119.99970447

---------------------
BASIS SET INFORMATION
---------------------
There are 2 groups of distinct atoms

 Group   1 Type B   : 11s6p2d1f contracted to 5s3p2d1f pattern {62111/411/11/1}
 Group   2 Type F   : 11s6p2d1f contracted to 5s3p2d1f pattern {62111/411/11/1}

Atom   0B    basis set group =>   1
Atom   1F    basis set group =>   2
Atom   2F    basis set group =>   2
Atom   3F    basis set group =>   2
-------------------------------
AUXILIARY BASIS SET INFORMATION
-------------------------------
There are 2 groups of distinct atoms

 Group   1 Type B   : 12s5p4d2f1g contracted to 6s4p3d1f1g pattern {711111/2111/211/2/1}
 Group   2 Type F   : 12s5p4d2f1g contracted to 6s4p3d1f1g pattern {711111/2111/211/2/1}

Atom   0B    basis set group =>   1
Atom   1F    basis set group =>   2
Atom   2F    basis set group =>   2
Atom   3F    basis set group =>   2
------------------------------------------------------------------------------
                           ORCA GTO INTEGRAL CALCULATION
                           -- RI-GTO INTEGRALS CHOSEN --
------------------------------------------------------------------------------

                         BASIS SET STATISTICS AND STARTUP INFO

Gaussian basis set:
 # of primitive gaussian shells          ...   80
 # of primitive gaussian functions       ...  184
 # of contracted shells                  ...   44
 # of contracted basis functions         ...  124
 Highest angular momentum                ...    3
 Maximum contraction depth               ...    6
Auxiliary gaussian basis set:
 # of primitive gaussian shells          ...   96
 # of primitive gaussian functions       ...  280
 # of contracted shells                  ...   60
 # of contracted aux-basis functions     ...  196
 Highest angular momentum                ...    4
 Maximum contraction depth               ...    7
Ratio of auxiliary to basis functions    ...  1.58
Integral package used                  ... LIBINT
 One Electron integrals                  ... done
 Ordering auxiliary basis shells         ... done
 Integral threshhold             Thresh  ...  1.000e-10
 Primitive cut-off               TCut    ...  1.000e-11
 Pre-screening matrix                    ... done
 Shell pair data                         ... 
 Ordering of the shell pairs             ... done (   0.000 sec) 969 of 990 pairs
 Determination of significant pairs      ... done (   0.000 sec)
 Creation of shell pair data             ... done (   0.000 sec)
 Storage of shell pair data              ... done (   0.005 sec)
 Shell pair data done in (   0.005 sec)
 Computing two index integrals           ... done
 Cholesky decomposition of the V-matrix  ... done


Timings:
 Total evaluation time                   ...   0.302 sec (  0.005 min)
 One electron matrix time                ...   0.016 sec (  0.000 min) =  5.4%
 Schwartz matrix evaluation time         ...   0.151 sec (  0.003 min) = 50.1%
 Two index repulsion integral time       ...   0.005 sec (  0.000 min) =  1.7%
 Cholesky decomposition of V             ...   0.100 sec (  0.002 min) = 33.3%
 Three index repulsion integral time     ...   0.000 sec (  0.000 min) =  0.0%

-------------------------------------------------------------------------------
                                 ORCA SCF
-------------------------------------------------------------------------------

------------
SCF SETTINGS
------------
Hamiltonian:
 Density Functional     Method          .... DFT(GTOs)
 Exchange Functional    Exchange        .... PBE
   PBE kappa parameter   XKappa         ....  0.804000
   PBE mue parameter    XMuePBE         ....  0.219520
 Correlation Functional Correlation     .... PBE
   PBE beta parameter  CBetaPBE         ....  0.066725
 LDA part of GGA corr.  LDAOpt          .... PW91-LDA
 Gradients option       PostSCFGGA      .... off
   NL short-range parameter             ....  6.400000
 RI-approximation to the Coulomb term is turned on
   Number of auxiliary basis functions  .... 196


General Settings:
 Integral files         IntName         .... freq
 Hartree-Fock type      HFTyp           .... RHF
 Total Charge           Charge          ....    0
 Multiplicity           Mult            ....    1
 Number of Electrons    NEL             ....   32
 Basis Dimension        Dim             ....  124
 Nuclear Repulsion      ENuc            ....    128.3620853639 Eh

Convergence Acceleration:
 DIIS                   CNVDIIS         .... on
   Start iteration      DIISMaxIt       ....    12
   Startup error        DIISStart       ....  0.200000
   # of expansion vecs  DIISMaxEq       ....     5
   Bias factor          DIISBfac        ....   1.050
   Max. coefficient     DIISMaxC        ....  10.000
 Newton-Raphson         CNVNR           .... off
 SOSCF                  CNVSOSCF        .... on
   Start iteration      SOSCFMaxIt      ....   150
   Startup grad/error   SOSCFStart      ....  0.003300
 Level Shifting         CNVShift        .... on
   Level shift para.    LevelShift      ....    0.2500
   Turn off err/grad.   ShiftErr        ....    0.0010
 Zerner damping         CNVZerner       .... off
 Static damping         CNVDamp         .... on
   Fraction old density DampFac         ....    0.7000
   Max. Damping (<1)    DampMax         ....    0.9800
   Min. Damping (>=0)   DampMin         ....    0.0000
   Turn off err/grad.   DampErr         ....    0.1000
 Fernandez-Rico         CNVRico         .... off

SCF Procedure:
 Maximum # iterations   MaxIter         ....   125
 SCF integral mode      SCFMode         .... Direct
   Integral package                     .... LIBINT
 Reset frequeny         DirectResetFreq ....    20
 Integral Threshold     Thresh          ....  1.000e-10 Eh
 Primitive CutOff       TCut            ....  1.000e-11 Eh

Convergence Tolerance:
 Convergence Check Mode ConvCheckMode   .... Total+1el-Energy
 Convergence forced     ConvForced      .... 0
 Energy Change          TolE            ....  1.000e-06 Eh
 1-El. energy change                    ....  1.000e-03 Eh
 Orbital Gradient       TolG            ....  5.000e-05
 Orbital Rotation angle TolX            ....  5.000e-05
 DIIS Error             TolErr          ....  1.000e-06


Diagonalization of the overlap matrix:
Smallest eigenvalue                        ... 6.369e-04
Time for diagonalization                   ...    0.075 sec
Threshold for overlap eigenvalues          ... 1.000e-08
Number of eigenvalues below threshold      ... 0
Time for construction of square roots      ...    0.006 sec
Total time needed                          ...    0.081 sec

-------------------
DFT GRID GENERATION
-------------------

General Integration Accuracy     IntAcc      ...  4.340
Radial Grid Type                 RadialGrid  ... Gauss-Chebyshev
Angular Grid (max. acc.)         AngularGrid ... Lebedev-110
Angular grid pruning method      GridPruning ... 3 (G Style)
Weight generation scheme         WeightScheme... Becke
Basis function cutoff            BFCut       ...    1.0000e-10
Integration weight cutoff        WCut        ...    1.0000e-14
Grids for H and He will be reduced by one unit

# of grid points (after initial pruning)     ...   6898 (   0.0 sec)
# of grid points (after weights+screening)   ...   6802 (   0.0 sec)
nearest neighbour list constructed           ...    0.0 sec
Grid point re-assignment to atoms done       ...    0.0 sec
Grid point division into batches done        ...    0.0 sec
Reduced shell lists constructed in    0.1 sec

Total number of grid points                  ...     6802
Total number of batches                      ...      109
Average number of points per batch           ...       62
Average number of grid points per atom       ...     1700
Average number of shells per batch           ...    32.43 (73.70%)
Average number of basis functions per batch  ...    96.06 (77.47%)
Average number of large shells per batch     ...    28.10 (86.66%)
Average number of large basis fcns per batch ...    82.30 (85.67%)
Maximum spatial batch extension              ...  24.56, 30.26, 21.85 au
Average spatial batch extension              ...   5.23,  5.04,  5.19 au

Time for grid setup =    0.086 sec

------------------------------
INITIAL GUESS: MODEL POTENTIAL
------------------------------
Loading Hartree-Fock densities                     ... done
Calculating cut-offs                               ... done
Setting up the integral package                    ... done
Initializing the effective Hamiltonian             ... done
Starting the Coulomb interaction                   ... done (   0.0 sec)
Reading the grid                                   ... done
Mapping shells                                     ... done
Starting the XC term evaluation                    ... done (   0.1 sec)
  promolecular density results
     # of electrons  =     32.000141500
     EX              =    -33.961780791
     EC              =     -1.104311598
     EX+EC           =    -35.066092390
Transforming the Hamiltonian                       ... done (   0.0 sec)
Diagonalizing the Hamiltonian                      ... done (   0.0 sec)
Back transforming the eigenvectors                 ... done (   0.0 sec)
Now organizing SCF variables                       ... done
                      ------------------
                      INITIAL GUESS DONE (   0.3 sec)
                      ------------------
--------------
SCF ITERATIONS
--------------
ITER       Energy         Delta-E        Max-DP      RMS-DP      [F,P]     Damp
               ***  Starting incremental Fock matrix formation  ***
  0   -324.0894988713   0.000000000000 0.03489568  0.00146229  0.2250477 0.7000
  1   -324.1430213035  -0.053522432254 0.01760917  0.00087629  0.0883707 0.7000
                               ***Turning on DIIS***
  2   -324.1603302657  -0.017308962168 0.01824986  0.00109405  0.0174508 0.0000
  3   -324.1933652417  -0.033034975972 0.01119205  0.00058405  0.0471315 0.0000
  4   -324.1982185373  -0.004853295631 0.00460321  0.00017782  0.0048468 0.0000
                      *** Initiating the SOSCF procedure ***
                           *** Shutting down DIIS ***
                      *** Re-Reading the Fockian *** 
                      *** Removing any level shift *** 
ITER      Energy       Delta-E        Grad      Rot      Max-DP    RMS-DP
  5   -324.19836870  -0.0001501636  0.000571  0.000571  0.001134  0.000049
               *** Restarting incremental Fock matrix formation ***
  6   -324.19837301  -0.0000043108  0.000152  0.000357  0.000197  0.000009
  7   -324.19837272   0.0000002940  0.000215  0.000194  0.000128  0.000005
                 **** Energy Check signals convergence ****
              ***Rediagonalizing the Fockian in SOSCF/NRSCF***

               *****************************************************
               *                     SUCCESS                       *
               *           SCF CONVERGED AFTER   8 CYCLES          *
               *****************************************************

Setting up the final grid:

General Integration Accuracy     IntAcc      ...  4.670
Radial Grid Type                 RadialGrid  ... Gauss-Chebyshev
Angular Grid (max. acc.)         AngularGrid ... Lebedev-302
Angular grid pruning method      GridPruning ... 3 (G Style)
Weight generation scheme         WeightScheme... Becke
Basis function cutoff            BFCut       ...    1.0000e-10
Integration weight cutoff        WCut        ...    1.0000e-14
Grids for H and He will be reduced by one unit

# of grid points (after initial pruning)     ...  24944 (   0.0 sec)
# of grid points (after weights+screening)   ...  24518 (   0.0 sec)
nearest neighbour list constructed           ...    0.0 sec
Grid point re-assignment to atoms done       ...    0.0 sec
Grid point division into batches done        ...    0.1 sec
Reduced shell lists constructed in    0.4 sec

Total number of grid points                  ...    24518
Total number of batches                      ...      385
Average number of points per batch           ...       63
Average number of grid points per atom       ...     6130
Average number of shells per batch           ...    29.11 (66.16%)
Average number of basis functions per batch  ...    85.87 (69.25%)
Average number of large shells per batch     ...    24.80 (85.19%)
Average number of large basis fcns per batch ...    72.25 (84.14%)
Maximum spatial batch extension              ...  24.39, 24.39, 22.17 au
Average spatial batch extension              ...   3.45,  3.52,  3.66 au

Final grid set up in    0.5 sec
Final integration                            ... done (   0.4 sec)
Change in XC energy                          ...    -0.000054567
Integrated number of electrons               ...    32.000018207
Previous integrated no of electrons          ...    32.000074065

----------------
TOTAL SCF ENERGY
----------------

Total Energy       :         -324.19842781 Eh           -8821.88772 eV

Components:
Nuclear Repulsion  :          128.36208536 Eh            3492.90992 eV
Electronic Energy  :         -452.56051318 Eh          -12314.79764 eV
One Electron Energy:         -705.97241966 Eh          -19210.48618 eV
Two Electron Energy:          253.41190648 Eh            6895.68855 eV

Virial components:
Potential Energy   :         -649.34318947 Eh          -17669.52649 eV
Kinetic Energy     :          325.14476165 Eh            8847.63877 eV
Virial Ratio       :            1.99708950


DFT components:
N(Alpha)           :       16.000009103497 electrons
N(Beta)            :       16.000009103497 electrons
N(Total)           :       32.000018206995 electrons
E(X)               :      -34.435175883759 Eh       
E(C)               :       -1.114943627763 Eh       
E(XC)              :      -35.550119511523 Eh       

---------------
SCF CONVERGENCE
---------------

  Last Energy change         ...   -5.2964e-07  Tolerance :   1.0000e-06
  Last MAX-Density change    ...    7.6708e-06  Tolerance :   1.0000e-05
  Last RMS-Density change    ...    4.0688e-07  Tolerance :   1.0000e-06
  Last Orbital Gradient      ...    9.4435e-06  Tolerance :   5.0000e-05
  Last Orbital Rotation      ...    7.3263e-06  Tolerance :   5.0000e-05

             **** THE GBW FILE WAS UPDATED (freq.gbw) ****
             **** DENSITY FILE WAS UPDATED (freq.scfp.tmp) ****
             **** ENERGY FILE WAS UPDATED (freq.en.tmp) ****
----------------
ORBITAL ENERGIES
----------------

  NO   OCC          E(Eh)            E(eV) 
   0   2.0000     -24.260001      -660.1482 
   1   2.0000     -24.259965      -660.1472 
   2   2.0000     -24.259924      -660.1461 
   3   2.0000      -6.599499      -179.5815 
   4   2.0000      -1.232136       -33.5281 
   5   2.0000      -1.142528       -31.0898 
   6   2.0000      -1.142455       -31.0878 
   7   2.0000      -0.548012       -14.9122 
   8   2.0000      -0.525670       -14.3042 
   9   2.0000      -0.525547       -14.3009 
  10   2.0000      -0.512224       -13.9383 
  11   2.0000      -0.419193       -11.4068 
  12   2.0000      -0.419112       -11.4046 
  13   2.0000      -0.365704        -9.9513 
  14   2.0000      -0.365335        -9.9413 
  15   2.0000      -0.328143        -8.9292 
  16   0.0000      -0.086772        -2.3612 
  17   0.0000       0.073176         1.9912 
  18   0.0000       0.079522         2.1639 
  19   0.0000       0.079842         2.1726 
  20   0.0000       0.093022         2.5313 
  21   0.0000       0.345106         9.3908 
  22   0.0000       0.345688         9.4066 
  23   0.0000       0.383148        10.4260 
  24   0.0000       0.383481        10.4351 
  25   0.0000       0.413543        11.2531 
  26   0.0000       0.460953        12.5432 
  27   0.0000       0.527348        14.3499 
  28   0.0000       0.527893        14.3647 
  29   0.0000       0.549031        14.9399 
  30   0.0000       0.594455        16.1759 
  31   0.0000       0.594939        16.1891 
  32   0.0000       0.644721        17.5437 
  33   0.0000       0.644925        17.5493 
  34   0.0000       0.652358        17.7516 
  35   0.0000       0.652828        17.7644 
  36   0.0000       0.746658        20.3176 
  37   0.0000       0.747477        20.3399 
  38   0.0000       0.787326        21.4242 
  39   0.0000       0.843291        22.9471 
  40   0.0000       0.843752        22.9597 
  41   0.0000       0.862589        23.4723 
  42   0.0000       1.245377        33.8884 
  43   0.0000       1.263810        34.3900 
  44   0.0000       1.264909        34.4199 
  45   0.0000       1.515950        41.2511 
  46   0.0000       1.618796        44.0497 
  47   0.0000       1.619342        44.0645 
  48   0.0000       1.653920        45.0055 
  49   0.0000       1.677513        45.6474 
  50   0.0000       1.677964        45.6597 
  51   0.0000       1.693472        46.0817 
  52   0.0000       1.814574        49.3771 
  53   0.0000       1.814616        49.3782 
  54   0.0000       2.078094        56.5478 
  55   0.0000       2.078217        56.5512 
  56   0.0000       2.132089        58.0171 
  57   0.0000       2.221685        60.4551 
  58   0.0000       2.222306        60.4720 
  59   0.0000       2.279571        62.0303 
  60   0.0000       2.399363        65.2900 
  61   0.0000       2.399486        65.2933 
  62   0.0000       2.600965        70.7758 
  63   0.0000       2.601152        70.7810 
  64   0.0000       2.613614        71.1201 
  65   0.0000       2.677045        72.8461 
  66   0.0000       2.776948        75.5646 
  67   0.0000       2.777051        75.5674 
  68   0.0000       2.782969        75.7284 
  69   0.0000       2.866619        78.0047 
  70   0.0000       2.935697        79.8844 
  71   0.0000       2.936547        79.9075 
  72   0.0000       3.558825        96.8406 
  73   0.0000       3.559491        96.8587 
  74   0.0000       3.565120        97.0118 
  75   0.0000       3.572592        97.2152 
  76   0.0000       3.857075       104.9563 
  77   0.0000       3.859434       105.0205 
  78   0.0000       3.923878       106.7741 
  79   0.0000       4.021316       109.4256 
  80   0.0000       4.021735       109.4370 
  81   0.0000       4.294764       116.8665 
  82   0.0000       4.296588       116.9161 
  83   0.0000       4.894717       133.1920 
  84   0.0000       6.636674       180.5931 
  85   0.0000       6.659356       181.2103 
  86   0.0000       6.663376       181.3197 
  87   0.0000       6.683586       181.8696 
  88   0.0000       6.689763       182.0377 
  89   0.0000       6.692218       182.1045 
  90   0.0000       6.739366       183.3875 
  91   0.0000       6.742864       183.4827 
  92   0.0000       6.744326       183.5224 
  93   0.0000       6.882779       187.2899 
  94   0.0000       6.885971       187.3768 
  95   0.0000       7.026529       191.2016 
  96   0.0000       7.035064       191.4338 
  97   0.0000       7.063305       192.2023 
  98   0.0000       7.072275       192.4464 
  99   0.0000       7.206867       196.1088 
 100   0.0000       7.305548       198.7941 
 101   0.0000       7.306942       198.8320 
 102   0.0000       7.331225       199.4928 
 103   0.0000       7.599713       206.7987 
 104   0.0000       7.601379       206.8440 
 105   0.0000       8.174211       222.4316 
 106   0.0000       8.178276       222.5422 
 107   0.0000       8.351874       227.2661 
 108   0.0000       8.384744       228.1605 
 109   0.0000       8.386527       228.2090 
 110   0.0000       8.564862       233.0617 
 111   0.0000       8.668862       235.8917 
 112   0.0000       8.756723       238.2825 
 113   0.0000       8.758834       238.3400 
 114   0.0000       8.817000       239.9228 
 115   0.0000       8.856375       240.9942 
 116   0.0000       8.856923       241.0091 
 117   0.0000       9.115885       248.0558 
 118   0.0000       9.189645       250.0630 
 119   0.0000       9.197213       250.2689 
 120   0.0000      15.380234       418.5174 
 121   0.0000      56.845614      1546.8478 
 122   0.0000      56.845704      1546.8503 
 123   0.0000      57.161924      1555.4550 

                    ********************************
                    * MULLIKEN POPULATION ANALYSIS *
                    ********************************

-----------------------
MULLIKEN ATOMIC CHARGES
-----------------------
   0 B :    0.146318
   1 F :   -0.048846
   2 F :   -0.047820
   3 F :   -0.049652
Sum of atomic charges:    0.0000000

--------------------------------
MULLIKEN REDUCED ORBITAL CHARGES
--------------------------------
  0 B s       :     2.609172  s :     2.609172
      pz      :     0.497719  p :     1.619317
      px      :     0.566741
      py      :     0.554857
      dz2     :     0.062380  d :     0.529848
      dxz     :     0.098737
      dyz     :     0.079330
      dx2y2   :     0.140191
      dxy     :     0.149212
      f0      :     0.006430  f :     0.095344
      f+1     :     0.014208
      f-1     :     0.010023
      f+2     :     0.013627
      f-2     :     0.014183
      f+3     :     0.013068
      f-3     :     0.023805
  1 F s       :     3.821037  s :     3.821037
      pz      :     1.719541  p :     5.211192
      px      :     1.663656
      py      :     1.827995
      dz2     :     0.002825  d :     0.015751
      dxz     :     0.003712
      dyz     :     0.001458
      dx2y2   :     0.003305
      dxy     :     0.004451
      f0      :     0.000067  f :     0.000867
      f+1     :     0.000170
      f-1     :     0.000030
      f+2     :     0.000151
      f-2     :     0.000138
      f+3     :     0.000145
      f-3     :     0.000166
  2 F s       :     3.820333  s :     3.820333
      pz      :     1.683680  p :     5.210838
      px      :     1.802720
      py      :     1.724438
      dz2     :     0.003516  d :     0.015776
      dxz     :     0.002267
      dyz     :     0.003076
      dx2y2   :     0.003715
      dxy     :     0.003203
      f0      :     0.000078  f :     0.000873
      f+1     :     0.000094
      f-1     :     0.000139
      f+2     :     0.000143
      f-2     :     0.000185
      f+3     :     0.000107
      f-3     :     0.000126
  3 F s       :     3.821410  s :     3.821410
      pz      :     1.771192  p :     5.211590
      px      :     1.768245
      py      :     1.672153
      dz2     :     0.001414  d :     0.015780
      dxz     :     0.002190
      dyz     :     0.003610
      dx2y2   :     0.005324
      dxy     :     0.003243
      f0      :     0.000075  f :     0.000872
      f+1     :     0.000055
      f-1     :     0.000085
      f+2     :     0.000049
      f-2     :     0.000138
      f+3     :     0.000236
      f-3     :     0.000235


                     *******************************
                     * LOEWDIN POPULATION ANALYSIS *
                     *******************************

----------------------
LOEWDIN ATOMIC CHARGES
----------------------
   0 B :   -1.735321
   1 F :    0.578497
   2 F :    0.578494
   3 F :    0.578330

-------------------------------
LOEWDIN REDUCED ORBITAL CHARGES
-------------------------------
  0 B s       :     2.503654  s :     2.503654
      pz      :     0.573052  p :     2.029488
      px      :     0.741924
      py      :     0.714512
      dz2     :     0.186157  d :     1.476010
      dxz     :     0.284193
      dyz     :     0.233217
      dx2y2   :     0.363529
      dxy     :     0.408914
      f0      :     0.052782  f :     0.726169
      f+1     :     0.099510
      f-1     :     0.070538
      f+2     :     0.100765
      f-2     :     0.115843
      f+3     :     0.107362
      f-3     :     0.179369
  1 F s       :     3.425619  s :     3.425619
      pz      :     1.607962  p :     4.955668
      px      :     1.685630
      py      :     1.662076
      dz2     :     0.004822  d :     0.037893
      dxz     :     0.010528
      dyz     :     0.002614
      dx2y2   :     0.008710
      dxy     :     0.011219
      f0      :     0.000220  f :     0.002323
      f+1     :     0.000367
      f-1     :     0.000059
      f+2     :     0.000450
      f-2     :     0.000353
      f+3     :     0.000390
      f-3     :     0.000484
  2 F s       :     3.425604  s :     3.425604
      pz      :     1.608762  p :     4.955666
      px      :     1.674851
      py      :     1.672054
      dz2     :     0.005682  d :     0.037908
      dxz     :     0.005590
      dyz     :     0.009420
      dx2y2   :     0.008415
      dxy     :     0.008802
      f0      :     0.000190  f :     0.002328
      f+1     :     0.000186
      f-1     :     0.000383
      f+2     :     0.000378
      f-2     :     0.000546
      f+3     :     0.000277
      f-3     :     0.000368
  3 F s       :     3.425607  s :     3.425607
      pz      :     1.609970  p :     4.955838
      px      :     1.676683
      py      :     1.669185
      dz2     :     0.004278  d :     0.037902
      dxz     :     0.003575
      dyz     :     0.005972
      dx2y2   :     0.012775
      dxy     :     0.011302
      f0      :     0.000147  f :     0.002323
      f+1     :     0.000168
      f-1     :     0.000279
      f+2     :     0.000126
      f-2     :     0.000266
      f+3     :     0.000665
      f-3     :     0.000673


                      *****************************
                      * MAYER POPULATION ANALYSIS *
                      *****************************

  NA   - Mulliken gross atomic population
  ZA   - Total nuclear charge
  QA   - Mulliken gross atomic charge
  VA   - Mayer's total valence
  BVA  - Mayer's bonded valence
  FA   - Mayer's free valence

  ATOM       NA         ZA         QA         VA         BVA        FA
  0 B      4.8537     5.0000     0.1463     4.3078     4.3078     0.0000
  1 F      9.0488     9.0000    -0.0488     1.4274     1.4274     0.0000
  2 F      9.0478     9.0000    -0.0478     1.4272     1.4272     0.0000
  3 F      9.0497     9.0000    -0.0497     1.4228     1.4228    -0.0000

  Mayer bond orders larger than 0.1
B(  0-B ,  1-F ) :   1.4366 B(  0-B ,  2-F ) :   1.4369 B(  0-B ,  3-F ) :   1.4342 


-------
TIMINGS
-------

Total SCF time: 0 days 0 hours 0 min 4 sec 

Total time                  ....       4.906 sec
Sum of individual times     ....       4.673 sec  ( 95.2%)

Fock matrix formation       ....       3.714 sec  ( 75.7%)
  Split-RI-J                ....       2.061 sec  ( 55.5% of F)
  XC integration            ....       1.517 sec  ( 40.8% of F)
    Basis function eval.    ....       0.553 sec  ( 36.5% of XC)
    Density eval.           ....       0.211 sec  ( 13.9% of XC)
    XC-Functional eval.     ....       0.107 sec  (  7.1% of XC)
    XC-Potential eval.      ....       0.494 sec  ( 32.5% of XC)
Diagonalization             ....       0.030 sec  (  0.6%)
Density matrix formation    ....       0.001 sec  (  0.0%)
Population analysis         ....       0.020 sec  (  0.4%)
Initial guess               ....       0.252 sec  (  5.1%)
Orbital Transformation      ....       0.000 sec  (  0.0%)
Orbital Orthonormalization  ....       0.000 sec  (  0.0%)
DIIS solution               ....       0.038 sec  (  0.8%)
SOSCF solution              ....       0.028 sec  (  0.6%)
Grid generation             ....       0.588 sec  ( 12.0%)

-------------------------   --------------------
FINAL SINGLE POINT ENERGY      -324.198427814025
-------------------------   --------------------


                            ***************************************
                            *     ORCA property calculations      *
                            ***************************************

                                    ---------------------
                                    Active property flags
                                    ---------------------
   (+) Dipole Moment


------------------------------------------------------------------------------
                       ORCA ELECTRIC PROPERTIES CALCULATION
------------------------------------------------------------------------------

Dipole Moment Calculation                       ... on
Quadrupole Moment Calculation                   ... off
Polarizability Calculation                      ... off
GBWName                                         ... freq.gbw
Electron density file                           ... freq.scfp.tmp
The origin for moment calculation is the CENTER OF MASS  = (-6.147898,  2.199331  0.551985)

-------------
DIPOLE MOMENT
-------------
                                X             Y             Z
Electronic contribution:      0.14414      -0.28345      -0.62390
Nuclear contribution   :     -0.01543       0.03035       0.06683
                        -----------------------------------------
Total Dipole Moment    :      0.12871      -0.25310      -0.55707
                        -----------------------------------------
Magnitude (a.u.)       :      0.62526
Magnitude (Debye)      :      1.58929


-------------------------------------------------------------------------------
                               ORCA SCF HESSIAN
-------------------------------------------------------------------------------

Hessian of the Kohn-Sham DFT energy:
Kohn-Sham wavefunction type                      ... RKS
Hartree-Fock exchange scaling                    ...    0.000
Number of operators                              ...    1
Number of atoms                                  ...    4
Basis set dimensions                             ...  124
Integral neglect threshold                       ... 1.0e-10
Integral primitive cutoff                        ... 1.0e-11

Setting up DFT Hessian calculations              ... 
Electron density on the grid                     ... found on disk
Electron density on the final grid               ... found on disk
Building xc-kernel on the grid                   ... done   (      0.0 sec)
Building xc-kernel on the final grid             ... done   (      0.1 sec)
                                                     done   (      0.2 sec)

Nuclear repulsion Hessian                        ... done   (      0.0 sec)

----------------------------------------------
Forming right-hand sides of CP-SCF equations     ...
----------------------------------------------
One electron integral derivatives                ... done   (      0.2 sec)
Transforming the overlap derivative matrices     ... done   (      0.0 sec)
Making the Q(x) pseudodensities                  ... done   (      0.0 sec)
Adding the E*S(x)*S(y) terms to the Hessian      ... done   (      0.0 sec)
Calculating energy weighted overlap derivatives  ... done   (      0.1 sec)
Two electron integral derivatives (RI)           ... done   (      1.0 sec)
Exchange-correlation integral derivatives        ... done   (     10.0 sec)
tr(F(y)Q(x)) contribution to the Hessian         ... done   (      0.0 sec)
Response fock operator R(S(x)) (RI)              ... done   (      1.3 sec)
XC Response fock operator R(S(x))                ... done   (      2.8 sec)
tr(F(y)S(x)) contribution to the Hessian         ... done   (      0.0 sec)
Transforming and finalizing RHSs                 ... done   (      0.0 sec)

----------------------------------------------
Solving the CP-SCF equations (RI)                ...
----------------------------------------------
     CP-SCF ITERATION   0: 
     CP-SCF ITERATION   1:      0.002411610600
     CP-SCF ITERATION   2:      0.000048964332
     CP-SCF ITERATION   3:      0.000007086210
     CP-SCF ITERATION   4:      0.000000549242

                                                 ... done   (     15.7 sec)
Forming perturbed density Hessian contributions  ... done   (      0.0 sec)
Making the perturbed densities                   ... done   (      0.0 sec)
2nd integral derivative contribs (RI)            ... done   (      2.6 sec)
Exchange-correlation Hessian                     ... done   (      6.7 sec)
Dipol derivatives                                ... done   (      0.3 sec)

Total SCF Hessian time: 0 days 0 hours 0 min 41 sec 

Writing the Hessian file to the disk             ... done


-----------------------
VIBRATIONAL FREQUENCIES
-----------------------

   0:         0.00 cm**-1
   1:         0.00 cm**-1
   2:         0.00 cm**-1
   3:         0.00 cm**-1
   4:         0.00 cm**-1
   5:         0.00 cm**-1
   6:       340.58 cm**-1
   7:       534.79 cm**-1
   8:       535.82 cm**-1
   9:      1589.74 cm**-1
  10:      2161.54 cm**-1
  11:      2161.70 cm**-1


------------
NORMAL MODES
------------

These modes are the cartesian displacements weighted by the diagonal matrix
M(i,i)=1/sqrt(m[i]) where m[i] is the mass of the displaced atom
Thus, these vectors are normalized but *not* orthogonal

                  0          1          2          3          4          5    
      0       0.000000   0.000000   0.000000   0.000000   0.000000   0.000000
      1       0.000000   0.000000   0.000000   0.000000   0.000000   0.000000
      2       0.000000   0.000000   0.000000   0.000000   0.000000   0.000000
      3       0.000000   0.000000   0.000000   0.000000   0.000000   0.000000
      4       0.000000   0.000000   0.000000   0.000000   0.000000   0.000000
      5       0.000000   0.000000   0.000000   0.000000   0.000000   0.000000
      6       0.000000   0.000000   0.000000   0.000000   0.000000   0.000000
      7       0.000000   0.000000   0.000000   0.000000   0.000000   0.000000
      8       0.000000   0.000000   0.000000   0.000000   0.000000   0.000000
      9       0.000000   0.000000   0.000000   0.000000   0.000000   0.000000
     10       0.000000   0.000000   0.000000   0.000000   0.000000   0.000000
     11       0.000000   0.000000   0.000000   0.000000   0.000000   0.000000
                  6          7          8          9         10         11    
      0       0.178949  -0.300210   0.325013   0.112531   0.298156   0.816831
      1      -0.350825   0.279855   0.307825  -0.220568  -0.734079   0.348487
      2      -0.779814  -0.188609  -0.060708  -0.484919   0.402305   0.030571
      3      -0.255797  -0.226983   0.358842   0.440440  -0.086868  -0.309794
      4       0.029183  -0.443126  -0.300511   0.113401  -0.043092  -0.093730
      5       0.113736   0.189522   0.165227   0.166019  -0.037050  -0.157667
      6       0.065632   0.545530  -0.037774  -0.222828   0.133455  -0.115207
      7       0.262435  -0.036034   0.426381  -0.363474   0.174158  -0.187264
      8       0.082290   0.165936  -0.139935   0.229513  -0.141448   0.154375
      9       0.088342  -0.147725  -0.506003  -0.281644  -0.216239  -0.039781
     10      -0.091996   0.319921  -0.301024   0.375577   0.286630   0.082702
     11       0.247693  -0.248138   0.009250  -0.119610  -0.050417  -0.014104


-----------
IR SPECTRUM
-----------

 Mode    freq (cm**-1)   T**2         TX         TY         TZ
-------------------------------------------------------------------
   6:       340.58   65.042152  (  1.648914  -3.229536  -7.203702)
   7:       534.79   24.833248  ( -3.301633   3.084384  -2.102152)
   8:       535.82   24.845920  (  3.595402   3.384543  -0.681085)
   9:      1589.74   20.641129  (  0.939163  -1.842345  -4.045351)
  10:      2161.54  369.694086  (  6.441243 -15.890509   8.700356)
  11:      2161.70  369.751784  ( 17.680549   7.531579   0.652142)

The first frequency considered to be a vibration is 6
The total number of vibrations considered is 6


--------------------------
THERMOCHEMISTRY AT 298.15K
--------------------------

Temperature         ... 298.15 K
Pressure            ... 1.00 atm
Total Mass          ... 67.80 AMU

Throughout the following assumptions are being made:
  (1) The electronic state is orbitally nondegenerate
  (2) There are no thermally accessible electronically excited states
  (3) Hindered rotations indicated by low frequency modes are not
      treated as such but are treated as vibrations and this may
      cause some error
  (4) All equations used are the standard statistical mechanics
      equations for an ideal gas
  (5) All vibrations are strictly harmonic

freq.     340.58  E(vib)   ...       0.23 
freq.     534.79  E(vib)   ...       0.13 
freq.     535.82  E(vib)   ...       0.12 
freq.    1589.74  E(vib)   ...       0.00 
freq.    2161.54  E(vib)   ...       0.00 
freq.    2161.70  E(vib)   ...       0.00 

------------
INNER ENERGY
------------

The inner energy is: U= E(el) + E(ZPE) + E(vib) + E(rot) + E(trans)
    E(el)   - is the total energy from the electronic structure calculation
              = E(kin-el) + E(nuc-el) + E(el-el) + E(nuc-nuc)
    E(ZPE)  - the the zero temperature vibrational energy from the frequency calculation
    E(vib)  - the the finite temperature correction to E(ZPE) due to population
              of excited vibrational states
    E(rot)  - is the rotational thermal energy
    E(trans)- is the translational thermal energy

Summary of contributions to the inner energy U:
Electronic energy                ...   -324.19842781 Eh
Zero point energy                ...      0.01668569 Eh      10.47 kcal/mol
Thermal vibrational correction   ...      0.00077439 Eh       0.49 kcal/mol
Thermal rotational correction    ...      0.00141627 Eh       0.89 kcal/mol
Thermal translational correction ...      0.00141627 Eh       0.89 kcal/mol
-----------------------------------------------------------------------
Total thermal energy                   -324.17813520 Eh


Summary of corrections to the electronic energy:
(perhaps to be used in another calculation)
Total thermal correction                  0.00360693 Eh       2.26 kcal/mol
Non-thermal (ZPE) correction              0.01668569 Eh      10.47 kcal/mol
-----------------------------------------------------------------------
Total correction                          0.02029261 Eh      12.73 kcal/mol


--------
ENTHALPY
--------

The enthalpy is H = U + kB*T
                kB is Boltzmann's constant
Total free energy                 ...   -324.17813520 Eh 
Thermal Enthalpy correction       ...      0.00094421 Eh       0.59 kcal/mol
-----------------------------------------------------------------------
Total Enthalpy                    ...   -324.17719099 Eh


Vibrational entropy computed according to the QRRHO of S. Grimme
Chem.Eur.J. 2012 18 9955


-------
ENTROPY
-------

The entropy contributions are T*S = T*(S(el)+S(vib)+S(rot)+S(trans)
     S(el)   - electronic entropy
     S(vib)  - vibrational entropy
     S(rot)  - rotational entropy
     S(trans)- translational entropy
The entropies will be listed as mutliplied by the temperature to get
units of energy

Electronic entropy                ...      0.00000000 Eh      0.00 kcal/mol
Vibrational entropy               ...      0.00112820 Eh      0.71 kcal/mol
Rotational entropy                ...      0.00985910 Eh      6.19 kcal/mol
Translational entropy             ...      0.01832095 Eh     11.50 kcal/mol
-----------------------------------------------------------------------
Final entropy term                ...      0.02930825 Eh     18.39 kcal/mol


CAUTION: The rotational entropy is not quite correctly treated here
         because it includes a symmetry number that is not yet correctly
         implemented in ORCA!
For a nonlinear molecule the correct rotational entropy is:
    S(rot) = R*(ln(qrot/sn)+1.5)
    R    = 8.31441 J/mol/K = 1.987191683e-3 kcal/mol/K
    qrot = 22938.4908682
    sn is the rotational symmetry number. We have assumed 3 here
       if it is different for your molecule then you should correct
       the printed rotational entropy by manually evaluating the equation
       as given above

For convenience we print out the resulting values for sn=1 - 12:
 sn= 1  qrot/sn=   22938.4909 T*S(rot)=     6.84 kcal/mol T*S(tot)=    19.04 kcal/mol
 sn= 2  qrot/sn=   11469.2454 T*S(rot)=     6.43 kcal/mol T*S(tot)=    18.63 kcal/mol
 sn= 3  qrot/sn=    7646.1636 T*S(rot)=     6.19 kcal/mol T*S(tot)=    18.39 kcal/mol
 sn= 4  qrot/sn=    5734.6227 T*S(rot)=     6.02 kcal/mol T*S(tot)=    18.22 kcal/mol
 sn= 5  qrot/sn=    4587.6982 T*S(rot)=     5.88 kcal/mol T*S(tot)=    18.09 kcal/mol
 sn= 6  qrot/sn=    3823.0818 T*S(rot)=     5.78 kcal/mol T*S(tot)=    17.98 kcal/mol
 sn= 7  qrot/sn=    3276.9273 T*S(rot)=     5.68 kcal/mol T*S(tot)=    17.89 kcal/mol
 sn= 8  qrot/sn=    2867.3114 T*S(rot)=     5.61 kcal/mol T*S(tot)=    17.81 kcal/mol
 sn= 9  qrot/sn=    2548.7212 T*S(rot)=     5.54 kcal/mol T*S(tot)=    17.74 kcal/mol
 sn=10  qrot/sn=    2293.8491 T*S(rot)=     5.47 kcal/mol T*S(tot)=    17.68 kcal/mol
 sn=11  qrot/sn=    2085.3174 T*S(rot)=     5.42 kcal/mol T*S(tot)=    17.62 kcal/mol
 sn=12  qrot/sn=    1911.5409 T*S(rot)=     5.37 kcal/mol T*S(tot)=    17.57 kcal/mol


-------------------
GIBBS FREE ENTHALPY
-------------------

The Gibbs free enthalpy is G = H - T*S

Total enthalpy                    ...   -324.17719099 Eh 
Total entropy correction          ...     -0.02930825 Eh    -18.39 kcal/mol
-----------------------------------------------------------------------
Final Gibbs free enthalpy         ...   -324.20649924 Eh

For completeness - the Gibbs free enthalpy minus the electronic energy
G-E(el)                           ...     -0.00807143 Eh     -5.06 kcal/mol


Timings for individual modules:

Sum of individual times         ...       46.411 sec (=   0.774 min)
GTO integral calculation        ...        0.340 sec (=   0.006 min)   0.7 %
SCF iterations                  ...        4.929 sec (=   0.082 min)  10.6 %
Analytical frequency calculation...       41.142 sec (=   0.686 min)  88.6 %
                             ****ORCA TERMINATED NORMALLY****
TOTAL RUN TIME: 0 days 0 hours 0 minutes 46 seconds 657 msec
