
                                 *****************
                                 * O   R   C   A *
                                 *****************

           --- An Ab Initio, DFT and Semiempirical electronic structure package ---

                  #######################################################
                  #                        -***-                        #
                  #  Department of molecular theory and spectroscopy    #
                  #              Directorship: Frank Neese              #
                  # Max Planck Institute for Chemical Energy Conversion #
                  #                  D-45470 Muelheim/Ruhr              #
                  #                       Germany                       #
                  #                                                     #
                  #                  All rights reserved                #
                  #                        -***-                        #
                  #######################################################


                         Program Version 4.0.1.2 - RELEASE -


 With contributions from (in alphabetic order):
   Daniel Aravena         : Magnetic Properties
   Michael Atanasov       : Ab Initio Ligand Field Theory
   Ute Becker             : Parallelization
   Martin Brehm           : Molecular dynamics
   Dmytro Bykov           : SCF Hessian
   Vijay G. Chilkuri      : MRCI spin determinant printing
   Dipayan Datta          : RHF DLPNO-CCSD density
   Achintya Kumar Dutta   : EOM-CC, STEOM-CC
   Dmitry Ganyushin       : Spin-Orbit,Spin-Spin,Magnetic field MRCI
   Yang Guo               : DLPNO-NEVPT2, CIM, IAO-localization
   Andreas Hansen         : Spin unrestricted coupled pair/coupled cluster methods
   Lee Huntington         : MR-EOM, pCC
   Robert Izsak           : Overlap fitted RIJCOSX, COSX-SCS-MP3, EOM
   Christian Kollmar      : KDIIS, OOCD, Brueckner-CCSD(T), CCSD density
   Simone Kossmann        : Meta GGA functionals, TD-DFT gradient, OOMP2, MP2 Hessian
   Martin Krupicka        : AUTO-CI
   Dagmar Lenk            : GEPOL surface
   Dimitrios Liakos       : Extrapolation schemes; parallel MDCI
   Dimitrios Manganas     : ROCIS; embedding schemes
   Dimitrios Pantazis     : SARC Basis sets
   Taras Petrenko         : DFT Hessian,TD-DFT gradient, ASA, ECA, R-Raman, ABS, FL, XAS/XES, NRVS
   Peter Pinski           : DLPNO-MP2
   Christoph Reimann      : Effective Core Potentials
   Marius Retegan         : Local ZFS, SOC
   Christoph Riplinger    : Optimizer, TS searches, QM/MM, DLPNO-CCSD(T), (RO)-DLPNO pert. Triples
   Tobias Risthaus        : Range-separated hybrids, TD-DFT gradient, RPA, STAB
   Michael Roemelt        : Restricted open shell CIS
   Masaaki Saitow         : Open-shell DLPNO
   Barbara Sandhoefer     : DKH picture change effects
   Kantharuban Sivalingam : CASSCF convergence, NEVPT2, FIC-MRCI
   Georgi Stoychev        : AutoAux
   Boris Wezisla          : Elementary symmetry handling
   Frank Wennmohs         : Technical directorship


 We gratefully acknowledge several colleagues who have allowed us to
 interface, adapt or use parts of their codes:
   Stefan Grimme, W. Hujo, H. Kruse,             : VdW corrections, initial TS optimization,
                  C. Bannwarth                     DFT functionals, gCP, sTDA/sTD-DF
   Ed Valeev                                     : LibInt (2-el integral package), F12 methods
   Garnet Chan, S. Sharma, J. Yang, R. Olivares  : DMRG
   Ulf Ekstrom                                   : XCFun DFT Library
   Mihaly Kallay                                 : mrcc  (arbitrary order and MRCC methods)
   Andreas Klamt, Michael Diedenhofen            : otool_cosmo (COSMO solvation model)
   Jiri Pittner, Ondrej Demel                    : Mk-CCSD
   Frank Weinhold                                : gennbo (NPA and NBO analysis)
   Christopher J. Cramer and Donald G. Truhlar   : smd solvation model


 Your calculation uses the libint2 library for the computation of 2-el integrals
 For citations please refer to: http://libint.valeyev.net

 This ORCA versions uses:
   CBLAS   interface :  Fast vector & matrix operations
   LAPACKE interface :  Fast linear algebra routines
   SCALAPACK package :  Parallel linear algebra routines




*****************************************
The coordinations will be read from file: opt.xyz
*****************************************


Your calculation utilizes the basis: def2-TZVP
   F. Weigend and R. Ahlrichs, Phys. Chem. Chem. Phys. 7, 3297 (2005).

Your calculation utilizes the auxiliary basis: def2/J
   F. Weigend, Phys. Chem. Chem. Phys. 8, 1057 (2006).

================================================================================
                                        WARNINGS
                       Please study these warnings very carefully!
================================================================================

Warning: TCutStore was < 0. Adjusted to Thresh (uncritical)

INFO   : the flag for use of LIBINT has been found!

================================================================================
                                       INPUT FILE
================================================================================
NAME = freq.inp
|  1> # avogadro generated ORCA input file 
|  2> # Basic Mode
|  3> # 
|  4> ! PBE FREQ def2-TZVP
|  5> 
|  6> * xyzfile 0 1 opt.xyz
|  7> 
|  8> 
|  9>                          ****END OF INPUT****
================================================================================

                       ****************************
                       * Single Point Calculation *
                       ****************************

---------------------------------
CARTESIAN COORDINATES (ANGSTROEM)
---------------------------------
  C     -0.037553   -0.009112   -0.019190
  C     -1.391178    0.369968   -0.585964
  O     -2.008895   -0.822105   -1.088633
  H     -2.876862   -0.578393   -1.450442
  H     -2.015962    0.831958    0.202979
  H     -1.267469    1.116614   -1.394474
  H      0.476276    0.878666    0.376872
  H     -0.151572   -0.738062    0.795748
  H      0.595023   -0.458241   -0.798162

----------------------------
CARTESIAN COORDINATES (A.U.)
----------------------------
  NO LB      ZA    FRAG     MASS         X           Y           Z
   0 C     6.0000    0    12.011   -0.070965   -0.017219   -0.036264
   1 C     6.0000    0    12.011   -2.628946    0.699138   -1.107312
   2 O     8.0000    0    15.999   -3.796261   -1.553554   -2.057218
   3 H     1.0000    0     1.008   -5.436482   -1.093005   -2.740939
   4 H     1.0000    0     1.008   -3.809615    1.572173    0.383575
   5 H     1.0000    0     1.008   -2.395169    2.110094   -2.635173
   6 H     1.0000    0     1.008    0.900031    1.660437    0.712185
   7 H     1.0000    0     1.008   -0.286429   -1.394735    1.503745
   8 H     1.0000    0     1.008    1.124431   -0.865949   -1.508308

--------------------------------
INTERNAL COORDINATES (ANGSTROEM)
--------------------------------
 C      0   0   0     0.000000000000     0.00000000     0.00000000
 C      1   0   0     1.515663451904     0.00000000     0.00000000
 O      2   1   0     1.433627920128   107.93632872     0.00000000
 H      3   2   1     0.971426115221   107.87669069   179.91683617
 H      2   1   3     1.107348301265   109.98783053   120.87935146
 H      2   1   3     1.107461831793   109.99018224   239.18320332
 H      1   2   3     1.099560856036   110.49368117   179.82548228
 H      1   2   3     1.099314222404   110.51341659   299.88984266
 H      1   2   3     1.099394251316   110.55400291    59.78360318

---------------------------
INTERNAL COORDINATES (A.U.)
---------------------------
 C      0   0   0     0.000000000000     0.00000000     0.00000000
 C      1   0   0     2.864188835292     0.00000000     0.00000000
 O      2   1   0     2.709164146986   107.93632872     0.00000000
 H      3   2   1     1.835729317107   107.87669069   179.91683617
 H      2   1   3     2.092585024254   109.98783053   120.87935146
 H      2   1   3     2.092799565860   109.99018224   239.18320332
 H      1   2   3     2.077868885487   110.49368117   179.82548228
 H      1   2   3     2.077402815469   110.51341659   299.88984266
 H      1   2   3     2.077554048195   110.55400291    59.78360318

---------------------
BASIS SET INFORMATION
---------------------
There are 3 groups of distinct atoms

 Group   1 Type C   : 11s6p2d1f contracted to 5s3p2d1f pattern {62111/411/11/1}
 Group   2 Type O   : 11s6p2d1f contracted to 5s3p2d1f pattern {62111/411/11/1}
 Group   3 Type H   : 5s1p contracted to 3s1p pattern {311/1}

Atom   0C    basis set group =>   1
Atom   1C    basis set group =>   1
Atom   2O    basis set group =>   2
Atom   3H    basis set group =>   3
Atom   4H    basis set group =>   3
Atom   5H    basis set group =>   3
Atom   6H    basis set group =>   3
Atom   7H    basis set group =>   3
Atom   8H    basis set group =>   3
-------------------------------
AUXILIARY BASIS SET INFORMATION
-------------------------------
There are 3 groups of distinct atoms

 Group   1 Type C   : 12s5p4d2f1g contracted to 6s4p3d1f1g pattern {711111/2111/211/2/1}
 Group   2 Type O   : 12s5p4d2f1g contracted to 6s4p3d1f1g pattern {711111/2111/211/2/1}
 Group   3 Type H   : 5s2p1d contracted to 3s1p1d pattern {311/2/1}

Atom   0C    basis set group =>   1
Atom   1C    basis set group =>   1
Atom   2O    basis set group =>   2
Atom   3H    basis set group =>   3
Atom   4H    basis set group =>   3
Atom   5H    basis set group =>   3
Atom   6H    basis set group =>   3
Atom   7H    basis set group =>   3
Atom   8H    basis set group =>   3
------------------------------------------------------------------------------
                           ORCA GTO INTEGRAL CALCULATION
                           -- RI-GTO INTEGRALS CHOSEN --
------------------------------------------------------------------------------

                         BASIS SET STATISTICS AND STARTUP INFO

Gaussian basis set:
 # of primitive gaussian shells          ...   96
 # of primitive gaussian functions       ...  186
 # of contracted shells                  ...   57
 # of contracted basis functions         ...  129
 Highest angular momentum                ...    3
 Maximum contraction depth               ...    6
Auxiliary gaussian basis set:
 # of primitive gaussian shells          ...  120
 # of primitive gaussian functions       ...  306
 # of contracted shells                  ...   75
 # of contracted aux-basis functions     ...  213
 Highest angular momentum                ...    4
 Maximum contraction depth               ...    7
Ratio of auxiliary to basis functions    ...  1.65
Integral package used                  ... LIBINT
 One Electron integrals                  ... done
 Ordering auxiliary basis shells         ... done
 Integral threshhold             Thresh  ...  1.000e-10
 Primitive cut-off               TCut    ...  1.000e-11
 Pre-screening matrix                    ... done
 Shell pair data                         ... 
 Ordering of the shell pairs             ... done (   0.000 sec) 1636 of 1653 pairs
 Determination of significant pairs      ... done (   0.000 sec)
 Creation of shell pair data             ... done (   0.001 sec)
 Storage of shell pair data              ... done (   0.006 sec)
 Shell pair data done in (   0.007 sec)
 Computing two index integrals           ... done
 Cholesky decomposition of the V-matrix  ... done


Timings:
 Total evaluation time                   ...   0.207 sec (  0.003 min)
 One electron matrix time                ...   0.015 sec (  0.000 min) =  7.3%
 Schwartz matrix evaluation time         ...   0.148 sec (  0.002 min) = 71.7%
 Two index repulsion integral time       ...   0.008 sec (  0.000 min) =  3.8%
 Cholesky decomposition of V             ...   0.005 sec (  0.000 min) =  2.2%
 Three index repulsion integral time     ...   0.000 sec (  0.000 min) =  0.0%

-------------------------------------------------------------------------------
                                 ORCA SCF
-------------------------------------------------------------------------------

------------
SCF SETTINGS
------------
Hamiltonian:
 Density Functional     Method          .... DFT(GTOs)
 Exchange Functional    Exchange        .... PBE
   PBE kappa parameter   XKappa         ....  0.804000
   PBE mue parameter    XMuePBE         ....  0.219520
 Correlation Functional Correlation     .... PBE
   PBE beta parameter  CBetaPBE         ....  0.066725
 LDA part of GGA corr.  LDAOpt          .... PW91-LDA
 Gradients option       PostSCFGGA      .... off
   NL short-range parameter             ....  6.400000
 RI-approximation to the Coulomb term is turned on
   Number of auxiliary basis functions  .... 213


General Settings:
 Integral files         IntName         .... freq
 Hartree-Fock type      HFTyp           .... RHF
 Total Charge           Charge          ....    0
 Multiplicity           Mult            ....    1
 Number of Electrons    NEL             ....   26
 Basis Dimension        Dim             ....  129
 Nuclear Repulsion      ENuc            ....     81.3900692276 Eh

Convergence Acceleration:
 DIIS                   CNVDIIS         .... on
   Start iteration      DIISMaxIt       ....    12
   Startup error        DIISStart       ....  0.200000
   # of expansion vecs  DIISMaxEq       ....     5
   Bias factor          DIISBfac        ....   1.050
   Max. coefficient     DIISMaxC        ....  10.000
 Newton-Raphson         CNVNR           .... off
 SOSCF                  CNVSOSCF        .... on
   Start iteration      SOSCFMaxIt      ....   150
   Startup grad/error   SOSCFStart      ....  0.003300
 Level Shifting         CNVShift        .... on
   Level shift para.    LevelShift      ....    0.2500
   Turn off err/grad.   ShiftErr        ....    0.0010
 Zerner damping         CNVZerner       .... off
 Static damping         CNVDamp         .... on
   Fraction old density DampFac         ....    0.7000
   Max. Damping (<1)    DampMax         ....    0.9800
   Min. Damping (>=0)   DampMin         ....    0.0000
   Turn off err/grad.   DampErr         ....    0.1000
 Fernandez-Rico         CNVRico         .... off

SCF Procedure:
 Maximum # iterations   MaxIter         ....   125
 SCF integral mode      SCFMode         .... Direct
   Integral package                     .... LIBINT
 Reset frequeny         DirectResetFreq ....    20
 Integral Threshold     Thresh          ....  1.000e-10 Eh
 Primitive CutOff       TCut            ....  1.000e-11 Eh

Convergence Tolerance:
 Convergence Check Mode ConvCheckMode   .... Total+1el-Energy
 Convergence forced     ConvForced      .... 0
 Energy Change          TolE            ....  1.000e-06 Eh
 1-El. energy change                    ....  1.000e-03 Eh
 Orbital Gradient       TolG            ....  5.000e-05
 Orbital Rotation angle TolX            ....  5.000e-05
 DIIS Error             TolErr          ....  1.000e-06


Diagonalization of the overlap matrix:
Smallest eigenvalue                        ... 5.277e-04
Time for diagonalization                   ...    0.003 sec
Threshold for overlap eigenvalues          ... 1.000e-08
Number of eigenvalues below threshold      ... 0
Time for construction of square roots      ...    0.003 sec
Total time needed                          ...    0.006 sec

-------------------
DFT GRID GENERATION
-------------------

General Integration Accuracy     IntAcc      ...  4.340
Radial Grid Type                 RadialGrid  ... Gauss-Chebyshev
Angular Grid (max. acc.)         AngularGrid ... Lebedev-110
Angular grid pruning method      GridPruning ... 3 (G Style)
Weight generation scheme         WeightScheme... Becke
Basis function cutoff            BFCut       ...    1.0000e-10
Integration weight cutoff        WCut        ...    1.0000e-14
Grids for H and He will be reduced by one unit

# of grid points (after initial pruning)     ...   9792 (   0.0 sec)
# of grid points (after weights+screening)   ...   9351 (   0.0 sec)
nearest neighbour list constructed           ...    0.0 sec
Grid point re-assignment to atoms done       ...    0.0 sec
Grid point division into batches done        ...    0.0 sec
Reduced shell lists constructed in    0.1 sec

Total number of grid points                  ...     9351
Total number of batches                      ...      150
Average number of points per batch           ...       62
Average number of grid points per atom       ...     1039
Average number of shells per batch           ...    45.55 (79.91%)
Average number of basis functions per batch  ...   105.71 (81.94%)
Average number of large shells per batch     ...    38.85 (85.29%)
Average number of large basis fcns per batch ...    90.26 (85.39%)
Maximum spatial batch extension              ...  25.35, 20.76, 21.63 au
Average spatial batch extension              ...   4.24,  4.22,  4.24 au

Time for grid setup =    0.142 sec

------------------------------
INITIAL GUESS: MODEL POTENTIAL
------------------------------
Loading Hartree-Fock densities                     ... done
Calculating cut-offs                               ... done
Setting up the integral package                    ... done
Initializing the effective Hamiltonian             ... done
Starting the Coulomb interaction                   ... done (   0.1 sec)
Reading the grid                                   ... done
Mapping shells                                     ... done
Starting the XC term evaluation                    ... done (   0.2 sec)
  promolecular density results
     # of electrons  =     26.007750387
     EX              =    -20.127651840
     EC              =     -0.834968371
     EX+EC           =    -20.962620212
Transforming the Hamiltonian                       ... done (   0.0 sec)
Diagonalizing the Hamiltonian                      ... done (   0.0 sec)
Back transforming the eigenvectors                 ... done (   0.0 sec)
Now organizing SCF variables                       ... done
                      ------------------
                      INITIAL GUESS DONE (   0.5 sec)
                      ------------------
--------------
SCF ITERATIONS
--------------
ITER       Energy         Delta-E        Max-DP      RMS-DP      [F,P]     Damp
               ***  Starting incremental Fock matrix formation  ***
  0   -154.7770647271   0.000000000000 0.04984882  0.00209562  0.2427535 0.7000
  1   -154.8434397475  -0.066375020460 0.03715483  0.00145602  0.0817852 0.7000
                               ***Turning on DIIS***
  2   -154.8631940421  -0.019754294525 0.04585784  0.00189644  0.0204379 0.0000
  3   -154.8983925457  -0.035198503657 0.03298518  0.00103946  0.0542827 0.0000
  4   -154.9063374121  -0.007944866359 0.00603414  0.00028745  0.0116055 0.0000
  5   -154.9069447025  -0.000607290390 0.00285476  0.00013110  0.0065509 0.0000
                      *** Initiating the SOSCF procedure ***
                           *** Shutting down DIIS ***
                      *** Re-Reading the Fockian *** 
                      *** Removing any level shift *** 
ITER      Energy       Delta-E        Grad      Rot      Max-DP    RMS-DP
  6   -154.90700954  -0.0000648331  0.000326  0.000326  0.001992  0.000086
               *** Restarting incremental Fock matrix formation ***
  7   -154.90701171  -0.0000021778  0.000146  0.000241  0.000567  0.000020
  8   -154.90701115   0.0000005617  0.000275  0.000138  0.000304  0.000012
                 **** Energy Check signals convergence ****
              ***Rediagonalizing the Fockian in SOSCF/NRSCF***

               *****************************************************
               *                     SUCCESS                       *
               *           SCF CONVERGED AFTER   9 CYCLES          *
               *****************************************************

Setting up the final grid:

General Integration Accuracy     IntAcc      ...  4.670
Radial Grid Type                 RadialGrid  ... Gauss-Chebyshev
Angular Grid (max. acc.)         AngularGrid ... Lebedev-302
Angular grid pruning method      GridPruning ... 3 (G Style)
Weight generation scheme         WeightScheme... Becke
Basis function cutoff            BFCut       ...    1.0000e-10
Integration weight cutoff        WCut        ...    1.0000e-14
Grids for H and He will be reduced by one unit

# of grid points (after initial pruning)     ...  39000 (   0.0 sec)
# of grid points (after weights+screening)   ...  37034 (   0.0 sec)
nearest neighbour list constructed           ...    0.0 sec
Grid point re-assignment to atoms done       ...    0.0 sec
Grid point division into batches done        ...    0.1 sec
Reduced shell lists constructed in    0.6 sec

Total number of grid points                  ...    37034
Total number of batches                      ...      583
Average number of points per batch           ...       63
Average number of grid points per atom       ...     4115
Average number of shells per batch           ...    41.73 (73.22%)
Average number of basis functions per batch  ...    96.61 (74.89%)
Average number of large shells per batch     ...    34.92 (83.67%)
Average number of large basis fcns per batch ...    80.32 (83.14%)
Maximum spatial batch extension              ...  17.59, 17.86, 18.85 au
Average spatial batch extension              ...   2.75,  2.86,  2.76 au

Final grid set up in    0.6 sec
Final integration                            ... done (   0.7 sec)
Change in XC energy                          ...     0.001475598
Integrated number of electrons               ...    25.999976126
Previous integrated no of electrons          ...    26.007021819

----------------
TOTAL SCF ENERGY
----------------

Total Energy       :         -154.90553644 Eh           -4215.19394 eV

Components:
Nuclear Repulsion  :           81.39006923 Eh            2214.73638 eV
Electronic Energy  :         -236.29560567 Eh           -6429.93032 eV
One Electron Energy:         -371.05575901 Eh          -10096.94052 eV
Two Electron Energy:          134.76015334 Eh            3667.01020 eV

Virial components:
Potential Energy   :         -309.10034210 Eh           -8411.04792 eV
Kinetic Energy     :          154.19480565 Eh            4195.85397 eV
Virial Ratio       :            2.00460930


DFT components:
N(Alpha)           :       12.999988062996 electrons
N(Beta)            :       12.999988062996 electrons
N(Total)           :       25.999976125992 electrons
E(X)               :      -20.631105566462 Eh       
E(C)               :       -0.841345596494 Eh       
E(XC)              :      -21.472451162956 Eh       

---------------
SCF CONVERGENCE
---------------

  Last Energy change         ...   -8.9041e-07  Tolerance :   1.0000e-06
  Last MAX-Density change    ...    6.7725e-05  Tolerance :   1.0000e-05
  Last RMS-Density change    ...    2.1282e-06  Tolerance :   1.0000e-06
  Last Orbital Gradient      ...    2.1574e-05  Tolerance :   5.0000e-05
  Last Orbital Rotation      ...    3.3806e-05  Tolerance :   5.0000e-05

             **** THE GBW FILE WAS UPDATED (freq.gbw) ****
             **** DENSITY FILE WAS UPDATED (freq.scfp.tmp) ****
             **** ENERGY FILE WAS UPDATED (freq.en.tmp) ****
----------------
ORBITAL ENERGIES
----------------

  NO   OCC          E(Eh)            E(eV) 
   0   2.0000     -18.745460      -510.0899 
   1   2.0000      -9.927022      -270.1280 
   2   2.0000      -9.871460      -268.6161 
   3   2.0000      -0.927564       -25.2403 
   4   2.0000      -0.677895       -18.4465 
   5   2.0000      -0.546737       -14.8775 
   6   2.0000      -0.463981       -12.6256 
   7   2.0000      -0.412554       -11.2262 
   8   2.0000      -0.356181        -9.6922 
   9   2.0000      -0.337755        -9.1908 
  10   2.0000      -0.318181        -8.6582 
  11   2.0000      -0.288869        -7.8605 
  12   2.0000      -0.224343        -6.1047 
  13   0.0000       0.007955         0.2165 
  14   0.0000       0.038287         1.0418 
  15   0.0000       0.071749         1.9524 
  16   0.0000       0.078899         2.1470 
  17   0.0000       0.093787         2.5521 
  18   0.0000       0.115693         3.1482 
  19   0.0000       0.120967         3.2917 
  20   0.0000       0.147388         4.0106 
  21   0.0000       0.183710         4.9990 
  22   0.0000       0.212857         5.7921 
  23   0.0000       0.243672         6.6306 
  24   0.0000       0.268274         7.3001 
  25   0.0000       0.278110         7.5678 
  26   0.0000       0.330462         8.9923 
  27   0.0000       0.368100        10.0165 
  28   0.0000       0.380881        10.3643 
  29   0.0000       0.394097        10.7239 
  30   0.0000       0.405685        11.0393 
  31   0.0000       0.427901        11.6438 
  32   0.0000       0.445534        12.1236 
  33   0.0000       0.446947        12.1621 
  34   0.0000       0.477036        12.9808 
  35   0.0000       0.512213        13.9380 
  36   0.0000       0.519417        14.1341 
  37   0.0000       0.590318        16.0634 
  38   0.0000       0.639994        17.4151 
  39   0.0000       0.733485        19.9591 
  40   0.0000       0.774404        21.0726 
  41   0.0000       0.784329        21.3427 
  42   0.0000       0.812031        22.0965 
  43   0.0000       0.876898        23.8616 
  44   0.0000       0.932209        25.3667 
  45   0.0000       1.004424        27.3318 
  46   0.0000       1.011370        27.5208 
  47   0.0000       1.049073        28.5467 
  48   0.0000       1.081260        29.4226 
  49   0.0000       1.267708        34.4961 
  50   0.0000       1.390123        37.8272 
  51   0.0000       1.414838        38.4997 
  52   0.0000       1.433241        39.0005 
  53   0.0000       1.467521        39.9333 
  54   0.0000       1.468654        39.9641 
  55   0.0000       1.491468        40.5849 
  56   0.0000       1.507378        41.0179 
  57   0.0000       1.525520        41.5115 
  58   0.0000       1.549960        42.1766 
  59   0.0000       1.667411        45.3726 
  60   0.0000       1.682591        45.7856 
  61   0.0000       1.729589        47.0645 
  62   0.0000       1.735036        47.2127 
  63   0.0000       1.802662        49.0529 
  64   0.0000       1.835938        49.9584 
  65   0.0000       1.897305        51.6283 
  66   0.0000       1.980166        53.8830 
  67   0.0000       2.031068        55.2682 
  68   0.0000       2.053990        55.8919 
  69   0.0000       2.128768        57.9267 
  70   0.0000       2.160512        58.7905 
  71   0.0000       2.210293        60.1451 
  72   0.0000       2.246434        61.1286 
  73   0.0000       2.269013        61.7430 
  74   0.0000       2.283622        62.1405 
  75   0.0000       2.353627        64.0455 
  76   0.0000       2.375945        64.6528 
  77   0.0000       2.426919        66.0398 
  78   0.0000       2.459835        66.9355 
  79   0.0000       2.481246        67.5181 
  80   0.0000       2.506741        68.2119 
  81   0.0000       2.559351        69.6435 
  82   0.0000       2.587699        70.4149 
  83   0.0000       2.661314        72.4180 
  84   0.0000       2.697989        73.4160 
  85   0.0000       2.734831        74.4185 
  86   0.0000       2.756808        75.0166 
  87   0.0000       2.867464        78.0277 
  88   0.0000       2.947731        80.2118 
  89   0.0000       2.958071        80.4932 
  90   0.0000       3.007304        81.8329 
  91   0.0000       3.033880        82.5561 
  92   0.0000       3.058631        83.2296 
  93   0.0000       3.138399        85.4002 
  94   0.0000       3.164766        86.1177 
  95   0.0000       3.208925        87.3193 
  96   0.0000       3.254558        88.5610 
  97   0.0000       3.269207        88.9596 
  98   0.0000       3.402821        92.5955 
  99   0.0000       3.419922        93.0608 
 100   0.0000       3.477084        94.6163 
 101   0.0000       3.657181        99.5170 
 102   0.0000       3.674287        99.9824 
 103   0.0000       3.765267       102.4581 
 104   0.0000       3.789952       103.1298 
 105   0.0000       3.824403       104.0673 
 106   0.0000       3.924362       106.7873 
 107   0.0000       4.112892       111.9175 
 108   0.0000       4.144959       112.7901 
 109   0.0000       4.254634       115.7745 
 110   0.0000       4.308284       117.2344 
 111   0.0000       4.428751       120.5124 
 112   0.0000       4.521066       123.0245 
 113   0.0000       4.635190       126.1299 
 114   0.0000       5.143754       139.9687 
 115   0.0000       5.243635       142.6866 
 116   0.0000       5.333789       145.1398 
 117   0.0000       5.587047       152.0313 
 118   0.0000       5.621500       152.9688 
 119   0.0000       5.749376       156.4485 
 120   0.0000       6.101689       166.0354 
 121   0.0000       6.310994       171.7309 
 122   0.0000       6.539899       177.9597 
 123   0.0000       6.579026       179.0244 
 124   0.0000       6.830000       185.8538 
 125   0.0000       6.997203       190.4036 
 126   0.0000      21.992793       598.4543 
 127   0.0000      22.086666       601.0087 
 128   0.0000      43.318870      1178.7664 

                    ********************************
                    * MULLIKEN POPULATION ANALYSIS *
                    ********************************

-----------------------
MULLIKEN ATOMIC CHARGES
-----------------------
   0 C :   -0.324174
   1 C :   -0.081540
   2 O :   -0.421203
   3 H :    0.293197
   4 H :    0.090098
   5 H :    0.095615
   6 H :    0.106763
   7 H :    0.121766
   8 H :    0.119479
Sum of atomic charges:    0.0000000

--------------------------------
MULLIKEN REDUCED ORBITAL CHARGES
--------------------------------
  0 C s       :     3.227344  s :     3.227344
      pz      :     1.051938  p :     3.045615
      px      :     0.961504
      py      :     1.032173
      dz2     :     0.005702  d :     0.047899
      dxz     :     0.013365
      dyz     :     0.010876
      dx2y2   :     0.007325
      dxy     :     0.010631
      f0      :     0.000019  f :     0.003316
      f+1     :     0.000658
      f-1     :     0.000297
      f+2     :     0.000738
      f-2     :     0.000732
      f+3     :     0.000535
      f-3     :     0.000337
  1 C s       :     3.252293  s :     3.252293
      pz      :     0.971243  p :     2.692634
      px      :     0.923091
      py      :     0.798300
      dz2     :     0.016062  d :     0.127285
      dxz     :     0.022166
      dyz     :     0.028431
      dx2y2   :     0.032330
      dxy     :     0.028296
      f0      :     0.000380  f :     0.009328
      f+1     :     0.000980
      f-1     :     0.001637
      f+2     :     0.001470
      f-2     :     0.001453
      f+3     :     0.001392
      f-3     :     0.002016
  2 O s       :     3.798443  s :     3.798443
      pz      :     1.749640  p :     4.593078
      px      :     1.364922
      py      :     1.478516
      dz2     :     0.003293  d :     0.028185
      dxz     :     0.003357
      dyz     :     0.005582
      dx2y2   :     0.009375
      dxy     :     0.006579
      f0      :     0.000310  f :     0.001497
      f+1     :     0.000152
      f-1     :     0.000149
      f+2     :     0.000279
      f-2     :     0.000251
      f+3     :     0.000165
      f-3     :     0.000191
  3 H s       :     0.659978  s :     0.659978
      pz      :     0.017183  p :     0.046825
      px      :     0.018238
      py      :     0.011404
  4 H s       :     0.890693  s :     0.890693
      pz      :     0.007899  p :     0.019209
      px      :     0.006406
      py      :     0.004904
  5 H s       :     0.885097  s :     0.885097
      pz      :     0.007935  p :     0.019288
      px      :     0.004167
      py      :     0.007185
  6 H s       :     0.872608  s :     0.872608
      pz      :     0.005512  p :     0.020629
      px      :     0.006390
      py      :     0.008728
  7 H s       :     0.857344  s :     0.857344
      pz      :     0.008520  p :     0.020890
      px      :     0.004383
      py      :     0.007987
  8 H s       :     0.860135  s :     0.860135
      pz      :     0.007621  p :     0.020386
      px      :     0.006980
      py      :     0.005785


                     *******************************
                     * LOEWDIN POPULATION ANALYSIS *
                     *******************************

----------------------
LOEWDIN ATOMIC CHARGES
----------------------
   0 C :   -0.326649
   1 C :   -0.393965
   2 O :   -0.049051
   3 H :    0.169498
   4 H :    0.112597
   5 H :    0.113077
   6 H :    0.125189
   7 H :    0.124585
   8 H :    0.124719

-------------------------------
LOEWDIN REDUCED ORBITAL CHARGES
-------------------------------
  0 C s       :     2.846933  s :     2.846933
      pz      :     1.077336  p :     3.206797
      px      :     1.059359
      py      :     1.070103
      dz2     :     0.026137  d :     0.248417
      dxz     :     0.063064
      dyz     :     0.058589
      dx2y2   :     0.043233
      dxy     :     0.057394
      f0      :     0.002385  f :     0.024502
      f+1     :     0.005616
      f-1     :     0.002031
      f+2     :     0.003253
      f-2     :     0.002886
      f+3     :     0.004763
      f-3     :     0.003569
  1 C s       :     2.822663  s :     2.822663
      pz      :     1.028747  p :     2.957159
      px      :     1.025387
      py      :     0.903025
      dz2     :     0.060606  d :     0.546146
      dxz     :     0.090885
      dyz     :     0.152763
      dx2y2   :     0.123852
      dxy     :     0.118039
      f0      :     0.005286  f :     0.067997
      f+1     :     0.009087
      f-1     :     0.010641
      f+2     :     0.007765
      f-2     :     0.008284
      f+3     :     0.012554
      f-3     :     0.014379
  2 O s       :     3.383027  s :     3.383027
      pz      :     1.686002  p :     4.594260
      px      :     1.373855
      py      :     1.534404
      dz2     :     0.007150  d :     0.067434
      dxz     :     0.010187
      dyz     :     0.012402
      dx2y2   :     0.023292
      dxy     :     0.014404
      f0      :     0.000597  f :     0.004330
      f+1     :     0.000177
      f-1     :     0.000493
      f+2     :     0.000617
      f-2     :     0.000665
      f+3     :     0.000680
      f-3     :     0.001102
  3 H s       :     0.676872  s :     0.676872
      pz      :     0.047145  p :     0.153630
      px      :     0.069330
      py      :     0.037155
  4 H s       :     0.829909  s :     0.829909
      pz      :     0.025328  p :     0.057494
      px      :     0.018105
      py      :     0.014061
  5 H s       :     0.829484  s :     0.829484
      pz      :     0.023789  p :     0.057438
      px      :     0.012782
      py      :     0.020867
  6 H s       :     0.814388  s :     0.814388
      pz      :     0.016116  p :     0.060423
      px      :     0.017184
      py      :     0.027123
  7 H s       :     0.814560  s :     0.814560
      pz      :     0.024833  p :     0.060855
      px      :     0.013008
      py      :     0.023014
  8 H s       :     0.814416  s :     0.814416
      pz      :     0.024489  p :     0.060865
      px      :     0.019471
      py      :     0.016905


                      *****************************
                      * MAYER POPULATION ANALYSIS *
                      *****************************

  NA   - Mulliken gross atomic population
  ZA   - Total nuclear charge
  QA   - Mulliken gross atomic charge
  VA   - Mayer's total valence
  BVA  - Mayer's bonded valence
  FA   - Mayer's free valence

  ATOM       NA         ZA         QA         VA         BVA        FA
  0 C      6.3242     6.0000    -0.3242     3.8547     3.8547     0.0000
  1 C      6.0815     6.0000    -0.0815     4.0247     4.0247     0.0000
  2 O      8.4212     8.0000    -0.4212     1.9723     1.9723    -0.0000
  3 H      0.7068     1.0000     0.2932     0.9267     0.9267    -0.0000
  4 H      0.9099     1.0000     0.0901     0.9439     0.9439     0.0000
  5 H      0.9044     1.0000     0.0956     0.9409     0.9409     0.0000
  6 H      0.8932     1.0000     0.1068     0.9746     0.9746    -0.0000
  7 H      0.8782     1.0000     0.1218     0.9766     0.9766     0.0000
  8 H      0.8805     1.0000     0.1195     0.9805     0.9805    -0.0000

  Mayer bond orders larger than 0.1
B(  0-C ,  1-C ) :   1.0191 B(  0-C ,  6-H ) :   0.9526 B(  0-C ,  7-H ) :   0.9637 
B(  0-C ,  8-H ) :   0.9616 B(  1-C ,  2-O ) :   1.0781 B(  1-C ,  4-H ) :   0.9474 
B(  1-C ,  5-H ) :   0.9478 B(  2-O ,  3-H ) :   0.9014 

-------
TIMINGS
-------

Total SCF time: 0 days 0 hours 0 min 6 sec 

Total time                  ....       6.660 sec
Sum of individual times     ....       6.516 sec  ( 97.9%)

Fock matrix formation       ....       5.231 sec  ( 78.5%)
  Split-RI-J                ....       2.502 sec  ( 47.8% of F)
  XC integration            ....       2.603 sec  ( 49.8% of F)
    Basis function eval.    ....       1.068 sec  ( 41.0% of XC)
    Density eval.           ....       0.370 sec  ( 14.2% of XC)
    XC-Functional eval.     ....       0.158 sec  (  6.1% of XC)
    XC-Potential eval.      ....       0.825 sec  ( 31.7% of XC)
Diagonalization             ....       0.035 sec  (  0.5%)
Density matrix formation    ....       0.002 sec  (  0.0%)
Population analysis         ....       0.011 sec  (  0.2%)
Initial guess               ....       0.370 sec  (  5.6%)
Orbital Transformation      ....       0.000 sec  (  0.0%)
Orbital Orthonormalization  ....       0.000 sec  (  0.0%)
DIIS solution               ....       0.046 sec  (  0.7%)
SOSCF solution              ....       0.040 sec  (  0.6%)
Grid generation             ....       0.783 sec  ( 11.8%)

-------------------------   --------------------
FINAL SINGLE POINT ENERGY      -154.905536443743
-------------------------   --------------------


                            ***************************************
                            *     ORCA property calculations      *
                            ***************************************

                                    ---------------------
                                    Active property flags
                                    ---------------------
   (+) Dipole Moment


------------------------------------------------------------------------------
                       ORCA ELECTRIC PROPERTIES CALCULATION
------------------------------------------------------------------------------

Dipole Moment Calculation                       ... on
Quadrupole Moment Calculation                   ... off
Polarizability Calculation                      ... off
GBWName                                         ... freq.gbw
Electron density file                           ... freq.scfp.tmp
The origin for moment calculation is the CENTER OF MASS  = (-2.238978, -0.318215 -1.106343)

-------------
DIPOLE MOMENT
-------------
                                X             Y             Z
Electronic contribution:     -2.00156      -1.38485      -1.18596
Nuclear contribution   :      1.74064       1.92569       1.16080
                        -----------------------------------------
Total Dipole Moment    :     -0.26092       0.54084      -0.02516
                        -----------------------------------------
Magnitude (a.u.)       :      0.60102
Magnitude (Debye)      :      1.52766


-------------------------------------------------------------------------------
                               ORCA SCF HESSIAN
-------------------------------------------------------------------------------

Hessian of the Kohn-Sham DFT energy:
Kohn-Sham wavefunction type                      ... RKS
Hartree-Fock exchange scaling                    ...    0.000
Number of operators                              ...    1
Number of atoms                                  ...    9
Basis set dimensions                             ...  129
Integral neglect threshold                       ... 1.0e-10
Integral primitive cutoff                        ... 1.0e-11

Setting up DFT Hessian calculations              ... 
Electron density on the grid                     ... found on disk
Electron density on the final grid               ... found on disk
Building xc-kernel on the grid                   ... done   (      0.0 sec)
Building xc-kernel on the final grid             ... done   (      0.1 sec)
                                                     done   (      0.2 sec)

Nuclear repulsion Hessian                        ... done   (      0.0 sec)

----------------------------------------------
Forming right-hand sides of CP-SCF equations     ...
----------------------------------------------
One electron integral derivatives                ... done   (      0.2 sec)
Transforming the overlap derivative matrices     ... done   (      0.0 sec)
Making the Q(x) pseudodensities                  ... done   (      0.0 sec)
Adding the E*S(x)*S(y) terms to the Hessian      ... done   (      0.0 sec)
Calculating energy weighted overlap derivatives  ... done   (      0.3 sec)
Two electron integral derivatives (RI)           ... done   (      1.2 sec)
Exchange-correlation integral derivatives        ... done   (     41.9 sec)
tr(F(y)Q(x)) contribution to the Hessian         ... done   (      0.0 sec)
Response fock operator R(S(x)) (RI)              ... done   (      3.3 sec)
XC Response fock operator R(S(x))                ... done   (      9.4 sec)
tr(F(y)S(x)) contribution to the Hessian         ... done   (      0.0 sec)
Transforming and finalizing RHSs                 ... done   (      0.0 sec)

----------------------------------------------
Solving the CP-SCF equations (RI)                ...
----------------------------------------------
     CP-SCF ITERATION   0: 
     CP-SCF ITERATION   1:      0.001415906356
     CP-SCF ITERATION   2:      0.000119661862
     CP-SCF ITERATION   3:      0.000005584238
     CP-SCF ITERATION   4:      0.000000957279

                                                 ... done   (     37.9 sec)
Forming perturbed density Hessian contributions  ... done   (      0.0 sec)
Making the perturbed densities                   ... done   (      0.0 sec)
2nd integral derivative contribs (RI)            ... done   (      3.7 sec)
Exchange-correlation Hessian                     ... done   (     17.7 sec)
Dipol derivatives                                ... done   (      0.5 sec)

Total SCF Hessian time: 0 days 0 hours 1 min 56 sec 

Writing the Hessian file to the disk             ... done


-----------------------
VIBRATIONAL FREQUENCIES
-----------------------

   0:         0.00 cm**-1
   1:         0.00 cm**-1
   2:         0.00 cm**-1
   3:         0.00 cm**-1
   4:         0.00 cm**-1
   5:         0.00 cm**-1
   6:       236.86 cm**-1
   7:       279.13 cm**-1
   8:       404.50 cm**-1
   9:       794.35 cm**-1
  10:       875.13 cm**-1
  11:      1007.80 cm**-1
  12:      1072.02 cm**-1
  13:      1134.51 cm**-1
  14:      1232.87 cm**-1
  15:      1252.67 cm**-1
  16:      1348.14 cm**-1
  17:      1399.11 cm**-1
  18:      1428.60 cm**-1
  19:      1446.33 cm**-1
  20:      1471.84 cm**-1
  21:      2898.32 cm**-1
  22:      2922.42 cm**-1
  23:      2974.94 cm**-1
  24:      3049.86 cm**-1
  25:      3050.21 cm**-1
  26:      3706.29 cm**-1


------------
NORMAL MODES
------------

These modes are the cartesian displacements weighted by the diagonal matrix
M(i,i)=1/sqrt(m[i]) where m[i] is the mass of the displaced atom
Thus, these vectors are normalized but *not* orthogonal

                  0          1          2          3          4          5    
      0       0.000000   0.000000   0.000000   0.000000   0.000000   0.000000
      1       0.000000   0.000000   0.000000   0.000000   0.000000   0.000000
      2       0.000000   0.000000   0.000000   0.000000   0.000000   0.000000
      3       0.000000   0.000000   0.000000   0.000000   0.000000   0.000000
      4       0.000000   0.000000   0.000000   0.000000   0.000000   0.000000
      5       0.000000   0.000000   0.000000   0.000000   0.000000   0.000000
      6       0.000000   0.000000   0.000000   0.000000   0.000000   0.000000
      7       0.000000   0.000000   0.000000   0.000000   0.000000   0.000000
      8       0.000000   0.000000   0.000000   0.000000   0.000000   0.000000
      9       0.000000   0.000000   0.000000   0.000000   0.000000   0.000000
     10       0.000000   0.000000   0.000000   0.000000   0.000000   0.000000
     11       0.000000   0.000000   0.000000   0.000000   0.000000   0.000000
     12       0.000000   0.000000   0.000000   0.000000   0.000000   0.000000
     13       0.000000   0.000000   0.000000   0.000000   0.000000   0.000000
     14       0.000000   0.000000   0.000000   0.000000   0.000000   0.000000
     15       0.000000   0.000000   0.000000   0.000000   0.000000   0.000000
     16       0.000000   0.000000   0.000000   0.000000   0.000000   0.000000
     17       0.000000   0.000000   0.000000   0.000000   0.000000   0.000000
     18       0.000000   0.000000   0.000000   0.000000   0.000000   0.000000
     19       0.000000   0.000000   0.000000   0.000000   0.000000   0.000000
     20       0.000000   0.000000   0.000000   0.000000   0.000000   0.000000
     21       0.000000   0.000000   0.000000   0.000000   0.000000   0.000000
     22       0.000000   0.000000   0.000000   0.000000   0.000000   0.000000
     23       0.000000   0.000000   0.000000   0.000000   0.000000   0.000000
     24       0.000000   0.000000   0.000000   0.000000   0.000000   0.000000
     25       0.000000   0.000000   0.000000   0.000000   0.000000   0.000000
     26       0.000000   0.000000   0.000000   0.000000   0.000000   0.000000
                  6          7          8          9         10         11    
      0      -0.007060   0.009954   0.147616  -0.019656   0.161372  -0.157933
      1      -0.002679   0.003684   0.101054  -0.007262   0.079748   0.129216
      2       0.015506  -0.022870   0.087008   0.042587   0.089671  -0.050981
      3      -0.020277  -0.026217   0.073846  -0.025970  -0.031958   0.209392
      4      -0.007695  -0.009396  -0.170763  -0.009834   0.146912  -0.039832
      5       0.043157   0.055340   0.004655   0.055644   0.010924   0.090871
      6       0.036878  -0.010121  -0.206940   0.008262  -0.094275  -0.017547
      7       0.014104  -0.004187  -0.002445   0.003031  -0.133576  -0.090268
      8      -0.079009   0.023788  -0.097178  -0.018230  -0.067800  -0.024400
      9      -0.192778   0.365276  -0.147962  -0.008872  -0.084117   0.099266
     10      -0.074329   0.139230   0.319641  -0.003217  -0.046969   0.631362
     11       0.412476  -0.780337  -0.020671   0.018719  -0.049214   0.160164
     12      -0.042552  -0.017374   0.117976  -0.244217  -0.191228   0.138215
     13      -0.094823  -0.049305  -0.135831   0.298758   0.043046  -0.092563
     14       0.074193   0.089612   0.019981  -0.307055  -0.074926   0.053462
     15      -0.041208  -0.063039   0.108148   0.428108  -0.188763   0.140729
     16       0.063030   0.020065  -0.138509  -0.229147   0.047076  -0.089810
     17       0.103186   0.080426   0.038986  -0.086200  -0.085123   0.045754
     18       0.214927   0.128155  -0.207691   0.078348   0.713536   0.081892
     19       0.080230   0.046855   0.367111   0.029258  -0.332029  -0.061074
     20      -0.458389  -0.273069  -0.034366  -0.166438   0.276170   0.027808
     21       0.023677   0.078562   0.382544   0.462394  -0.126838  -0.388718
     22       0.354814   0.178549   0.228442  -0.146937  -0.138268  -0.006911
     23       0.338055   0.143203   0.233851  -0.021860  -0.139317  -0.204759
     24      -0.221660  -0.137148   0.392681  -0.303215  -0.168301  -0.406057
     25      -0.429173  -0.200876   0.228577   0.206890  -0.153538  -0.013320
     26       0.085500  -0.024291   0.212403  -0.318306  -0.050132  -0.170467
                 12         13         14         15         16         17    
      0      -0.049957  -0.045736  -0.009408  -0.037735  -0.121571   0.067731
      1      -0.095048  -0.017835   0.082848  -0.015051   0.041010   0.008160
      2      -0.041167   0.096840   0.011195   0.080865  -0.049287   0.033078
      3       0.099511   0.073130   0.030984   0.012029  -0.032437  -0.155682
      4       0.238246   0.028775  -0.076355   0.005311  -0.012520  -0.002225
      5       0.090958  -0.154445   0.000687  -0.027089  -0.017213  -0.073196
      6      -0.060465  -0.023196  -0.032323   0.012142   0.008049   0.027905
      7      -0.148811  -0.009458   0.047682   0.004154  -0.013373  -0.054027
      8      -0.055588   0.048495  -0.006898  -0.024950   0.001367   0.003374
      9      -0.104736   0.000466  -0.151850   0.006245   0.022078   0.099267
     10      -0.354135  -0.002351  -0.720259   0.008996   0.084607   0.435456
     11      -0.112491  -0.003535  -0.200563  -0.007928   0.025688   0.124935
     12       0.257347  -0.120512   0.333419   0.536460   0.177720   0.433117
     13       0.249010  -0.557903   0.035520   0.220471   0.065703   0.212213
     14       0.188381   0.029665   0.171492   0.283185   0.104398   0.284686
     15       0.273213  -0.015118   0.329330  -0.536009   0.185819   0.467281
     16       0.245200   0.509283   0.033104  -0.219886   0.068199   0.225036
     17       0.144850   0.269877   0.150939  -0.298491   0.089706   0.215042
     18      -0.432102   0.092738   0.120007   0.054692   0.452426  -0.131477
     19       0.204521   0.037709  -0.022446   0.021075  -0.362698   0.148400
     20      -0.164337  -0.206898   0.050731  -0.119651   0.141826  -0.036013
     21       0.151575   0.315681  -0.164654   0.228065   0.503872  -0.123580
     22       0.144463  -0.148773  -0.073414  -0.116496   0.033111  -0.114019
     23       0.187392   0.013702  -0.146258   0.022031   0.049272  -0.100326
     24       0.223928  -0.231517  -0.210318  -0.175861   0.365437  -0.139520
     25       0.166566   0.181789  -0.086682   0.135963  -0.016143  -0.120276
     26       0.045224  -0.186125  -0.058435  -0.123916   0.359800  -0.063845
                 18         19         20         21         22         23    
      0       0.018202   0.005784   0.001609   0.000520  -0.003989   0.043918
      1       0.006954  -0.044507  -0.016363   0.004905  -0.001346  -0.013113
      2      -0.040714  -0.004793  -0.001888   0.000949   0.008561   0.018015
      3       0.010238  -0.032919   0.021589   0.028040   0.040207  -0.001294
      4       0.003634   0.003081  -0.079962  -0.058203   0.013651   0.000295
      5      -0.023161  -0.014674  -0.003843   0.005171  -0.084264  -0.000585
      6      -0.000704   0.002570  -0.000114  -0.001971  -0.000163  -0.000099
      7      -0.000399   0.005380  -0.009112  -0.001846  -0.000099   0.000015
      8       0.001706   0.002176  -0.001760  -0.001276   0.000237  -0.000046
      9      -0.003669   0.003302   0.001576  -0.001085  -0.001912   0.001689
     10      -0.000846   0.009861   0.003186  -0.008119  -0.000828   0.000803
     11       0.008423   0.003205   0.001320  -0.001905   0.003782   0.000954
     12       0.037961   0.079677   0.038457  -0.390678  -0.416389   0.002695
     13      -0.029654  -0.200291   0.566578   0.260531   0.294394  -0.000752
     14       0.015936   0.175998  -0.326541   0.503762   0.502419  -0.000235
     15      -0.037375   0.211132  -0.295444   0.091904  -0.062417   0.001561
     16       0.031857  -0.150800   0.438216   0.464054  -0.456478  -0.001432
     17      -0.006918  -0.102099   0.384628  -0.543282   0.503508   0.002211
     18      -0.289471   0.239406   0.101104  -0.014980  -0.002167  -0.258493
     19      -0.114268  -0.193455  -0.085179  -0.037844  -0.001701  -0.463163
     20       0.630169   0.073107   0.028894  -0.013765   0.003172  -0.202273
     21       0.337230  -0.280129  -0.122892  -0.003429   0.009501   0.072730
     22       0.269200   0.412778   0.160642  -0.010306   0.053883   0.382320
     23       0.259306   0.347149   0.133280   0.015336  -0.057217  -0.429311
     24      -0.372380   0.029157   0.002587   0.009244   0.044403  -0.326507
     25      -0.276112   0.530142   0.208963  -0.003941  -0.034326   0.234726
     26      -0.172874  -0.299931  -0.125365  -0.012827  -0.057363   0.421697
                  24         25         26    
      0      -0.020114   0.036538  -0.000019
      1       0.042831   0.077484   0.000475
      2       0.078804  -0.033106   0.000065
      3      -0.004858   0.001809   0.000921
      4       0.001714   0.005091  -0.002097
      5       0.008333  -0.006355   0.000064
      6       0.000018  -0.000139   0.056024
      7      -0.000263  -0.000383  -0.013428
      8      -0.000226   0.000019   0.023761
      9       0.000191  -0.000285  -0.893989
     10      -0.000208  -0.000589   0.236983
     11      -0.000889   0.000479  -0.375105
     12       0.050085  -0.012881  -0.002589
     13      -0.032529   0.006990  -0.002246
     14      -0.058712   0.014411  -0.000655
     15       0.003057  -0.006458  -0.001818
     16       0.024245  -0.049244  -0.001886
     17      -0.029981   0.057133  -0.002268
     18      -0.245807  -0.296432   0.000436
     19      -0.411923  -0.514117  -0.001248
     20      -0.170033  -0.242580  -0.000033
     21       0.029961  -0.077593  -0.000580
     22       0.214528  -0.488880   0.000521
     23      -0.210984   0.560893  -0.001142
     24       0.459791  -0.061077  -0.001424
     25      -0.320722   0.067977   0.000341
     26      -0.564116   0.079570   0.000532


-----------
IR SPECTRUM
-----------

 Mode    freq (cm**-1)   T**2         TX         TY         TZ
-------------------------------------------------------------------
   6:       236.86   34.193211  ( -2.452943  -0.948177   5.222762)
   7:       279.13   83.174132  (  3.807267   1.446784  -8.160004)
   8:       404.50   11.100916  (  2.181967   2.124258   1.351836)
   9:       794.35    0.189691  (  0.190754   0.061111  -0.386742)
  10:       875.13   15.294592  (  2.169575   2.876563   1.520828)
  11:      1007.80   55.648155  (  4.078766   5.515921   2.930263)
  12:      1072.02   31.970564  (  2.917597   4.330821   2.168450)
  13:      1134.51    3.068911  (  0.747824   0.324477  -1.550608)
  14:      1232.87   61.991808  ( -2.910474  -6.849856  -2.569127)
  15:      1252.67    0.265813  (  0.208455   0.180396  -0.435679)
  16:      1348.14    3.708722  (  1.724575  -0.393094   0.761604)
  17:      1399.11   10.091650  ( -2.856268   0.755765  -1.167133)
  18:      1428.60    6.930518  ( -1.066706  -0.389525   2.375064)
  19:      1446.33    2.928944  (  0.467586   1.567312   0.503825)
  20:      1471.84    1.196004  ( -0.950781   0.093574  -0.532225)
  21:      2898.32   72.180281  (  2.284485  -8.180172  -0.214926)
  22:      2922.42   54.811259  (  3.114285   0.970682  -6.646071)
  23:      2974.94   15.722443  (  3.558582  -0.774805   1.567997)
  24:      3049.86   25.540695  ( -1.546738   2.286131   4.233426)
  25:      3050.21   23.921793  (  1.531103   4.158517  -2.069844)
  26:      3706.29   16.875408  ( -3.668675  -0.462662  -1.789463)

The first frequency considered to be a vibration is 6
The total number of vibrations considered is 21


--------------------------
THERMOCHEMISTRY AT 298.15K
--------------------------

Temperature         ... 298.15 K
Pressure            ... 1.00 atm
Total Mass          ... 46.07 AMU

Throughout the following assumptions are being made:
  (1) The electronic state is orbitally nondegenerate
  (2) There are no thermally accessible electronically excited states
  (3) Hindered rotations indicated by low frequency modes are not
      treated as such but are treated as vibrations and this may
      cause some error
  (4) All equations used are the standard statistical mechanics
      equations for an ideal gas
  (5) All vibrations are strictly harmonic

freq.     236.86  E(vib)   ...       0.32 
freq.     279.13  E(vib)   ...       0.28 
freq.     404.50  E(vib)   ...       0.19 
freq.     794.35  E(vib)   ...       0.05 
freq.     875.13  E(vib)   ...       0.04 
freq.    1007.80  E(vib)   ...       0.02 
freq.    1072.02  E(vib)   ...       0.02 
freq.    1134.51  E(vib)   ...       0.01 
freq.    1232.87  E(vib)   ...       0.01 
freq.    1252.67  E(vib)   ...       0.01 
freq.    1348.14  E(vib)   ...       0.01 
freq.    1399.11  E(vib)   ...       0.00 
freq.    1428.60  E(vib)   ...       0.00 
freq.    1446.33  E(vib)   ...       0.00 
freq.    1471.84  E(vib)   ...       0.00 
freq.    2898.32  E(vib)   ...       0.00 
freq.    2922.42  E(vib)   ...       0.00 
freq.    2974.94  E(vib)   ...       0.00 
freq.    3049.86  E(vib)   ...       0.00 
freq.    3050.21  E(vib)   ...       0.00 
freq.    3706.29  E(vib)   ...       0.00 

------------
INNER ENERGY
------------

The inner energy is: U= E(el) + E(ZPE) + E(vib) + E(rot) + E(trans)
    E(el)   - is the total energy from the electronic structure calculation
              = E(kin-el) + E(nuc-el) + E(el-el) + E(nuc-nuc)
    E(ZPE)  - the the zero temperature vibrational energy from the frequency calculation
    E(vib)  - the the finite temperature correction to E(ZPE) due to population
              of excited vibrational states
    E(rot)  - is the rotational thermal energy
    E(trans)- is the translational thermal energy

Summary of contributions to the inner energy U:
Electronic energy                ...   -154.90553644 Eh
Zero point energy                ...      0.07742559 Eh      48.59 kcal/mol
Thermal vibrational correction   ...      0.00154510 Eh       0.97 kcal/mol
Thermal rotational correction    ...      0.00141627 Eh       0.89 kcal/mol
Thermal translational correction ...      0.00141627 Eh       0.89 kcal/mol
-----------------------------------------------------------------------
Total thermal energy                   -154.82373321 Eh


Summary of corrections to the electronic energy:
(perhaps to be used in another calculation)
Total thermal correction                  0.00437765 Eh       2.75 kcal/mol
Non-thermal (ZPE) correction              0.07742559 Eh      48.59 kcal/mol
-----------------------------------------------------------------------
Total correction                          0.08180323 Eh      51.33 kcal/mol


--------
ENTHALPY
--------

The enthalpy is H = U + kB*T
                kB is Boltzmann's constant
Total free energy                 ...   -154.82373321 Eh 
Thermal Enthalpy correction       ...      0.00094421 Eh       0.59 kcal/mol
-----------------------------------------------------------------------
Total Enthalpy                    ...   -154.82278900 Eh


Vibrational entropy computed according to the QRRHO of S. Grimme
Chem.Eur.J. 2012 18 9955


-------
ENTROPY
-------

The entropy contributions are T*S = T*(S(el)+S(vib)+S(rot)+S(trans)
     S(el)   - electronic entropy
     S(vib)  - vibrational entropy
     S(rot)  - rotational entropy
     S(trans)- translational entropy
The entropies will be listed as mutliplied by the temperature to get
units of energy

Electronic entropy                ...      0.00000000 Eh      0.00 kcal/mol
Vibrational entropy               ...      0.00240356 Eh      1.51 kcal/mol
Rotational entropy                ...      0.00957373 Eh      6.01 kcal/mol
Translational entropy             ...      0.01777359 Eh     11.15 kcal/mol
-----------------------------------------------------------------------
Final entropy term                ...      0.02975088 Eh     18.67 kcal/mol


CAUTION: The rotational entropy is not quite correctly treated here
         because it includes a symmetry number that is not yet correctly
         implemented in ORCA!
For a nonlinear molecule the correct rotational entropy is:
    S(rot) = R*(ln(qrot/sn)+1.5)
    R    = 8.31441 J/mol/K = 1.987191683e-3 kcal/mol/K
    qrot = 16955.2199737
    sn is the rotational symmetry number. We have assumed 3 here
       if it is different for your molecule then you should correct
       the printed rotational entropy by manually evaluating the equation
       as given above

For convenience we print out the resulting values for sn=1 - 12:
 sn= 1  qrot/sn=   16955.2200 T*S(rot)=     6.66 kcal/mol T*S(tot)=    19.32 kcal/mol
 sn= 2  qrot/sn=    8477.6100 T*S(rot)=     6.25 kcal/mol T*S(tot)=    18.91 kcal/mol
 sn= 3  qrot/sn=    5651.7400 T*S(rot)=     6.01 kcal/mol T*S(tot)=    18.67 kcal/mol
 sn= 4  qrot/sn=    4238.8050 T*S(rot)=     5.84 kcal/mol T*S(tot)=    18.50 kcal/mol
 sn= 5  qrot/sn=    3391.0440 T*S(rot)=     5.70 kcal/mol T*S(tot)=    18.37 kcal/mol
 sn= 6  qrot/sn=    2825.8700 T*S(rot)=     5.60 kcal/mol T*S(tot)=    18.26 kcal/mol
 sn= 7  qrot/sn=    2422.1743 T*S(rot)=     5.51 kcal/mol T*S(tot)=    18.17 kcal/mol
 sn= 8  qrot/sn=    2119.4025 T*S(rot)=     5.43 kcal/mol T*S(tot)=    18.09 kcal/mol
 sn= 9  qrot/sn=    1883.9133 T*S(rot)=     5.36 kcal/mol T*S(tot)=    18.02 kcal/mol
 sn=10  qrot/sn=    1695.5220 T*S(rot)=     5.29 kcal/mol T*S(tot)=    17.96 kcal/mol
 sn=11  qrot/sn=    1541.3836 T*S(rot)=     5.24 kcal/mol T*S(tot)=    17.90 kcal/mol
 sn=12  qrot/sn=    1412.9350 T*S(rot)=     5.19 kcal/mol T*S(tot)=    17.85 kcal/mol


-------------------
GIBBS FREE ENTHALPY
-------------------

The Gibbs free enthalpy is G = H - T*S

Total enthalpy                    ...   -154.82278900 Eh 
Total entropy correction          ...     -0.02975088 Eh    -18.67 kcal/mol
-----------------------------------------------------------------------
Final Gibbs free enthalpy         ...   -154.85253988 Eh

For completeness - the Gibbs free enthalpy minus the electronic energy
G-E(el)                           ...      0.05299656 Eh     33.26 kcal/mol


Timings for individual modules:

Sum of individual times         ...      123.555 sec (=   2.059 min)
GTO integral calculation        ...        0.235 sec (=   0.004 min)   0.2 %
SCF iterations                  ...        6.685 sec (=   0.111 min)   5.4 %
Analytical frequency calculation...      116.636 sec (=   1.944 min)  94.4 %
                             ****ORCA TERMINATED NORMALLY****
TOTAL RUN TIME: 0 days 0 hours 2 minutes 4 seconds 51 msec
