
                                 *****************
                                 * O   R   C   A *
                                 *****************

           --- An Ab Initio, DFT and Semiempirical electronic structure package ---

                  #######################################################
                  #                        -***-                        #
                  #  Department of molecular theory and spectroscopy    #
                  #              Directorship: Frank Neese              #
                  # Max Planck Institute for Chemical Energy Conversion #
                  #                  D-45470 Muelheim/Ruhr              #
                  #                       Germany                       #
                  #                                                     #
                  #                  All rights reserved                #
                  #                        -***-                        #
                  #######################################################


                         Program Version 4.0.1.2 - RELEASE -


 With contributions from (in alphabetic order):
   Daniel Aravena         : Magnetic Properties
   Michael Atanasov       : Ab Initio Ligand Field Theory
   Ute Becker             : Parallelization
   Martin Brehm           : Molecular dynamics
   Dmytro Bykov           : SCF Hessian
   Vijay G. Chilkuri      : MRCI spin determinant printing
   Dipayan Datta          : RHF DLPNO-CCSD density
   Achintya Kumar Dutta   : EOM-CC, STEOM-CC
   Dmitry Ganyushin       : Spin-Orbit,Spin-Spin,Magnetic field MRCI
   Yang Guo               : DLPNO-NEVPT2, CIM, IAO-localization
   Andreas Hansen         : Spin unrestricted coupled pair/coupled cluster methods
   Lee Huntington         : MR-EOM, pCC
   Robert Izsak           : Overlap fitted RIJCOSX, COSX-SCS-MP3, EOM
   Christian Kollmar      : KDIIS, OOCD, Brueckner-CCSD(T), CCSD density
   Simone Kossmann        : Meta GGA functionals, TD-DFT gradient, OOMP2, MP2 Hessian
   Martin Krupicka        : AUTO-CI
   Dagmar Lenk            : GEPOL surface
   Dimitrios Liakos       : Extrapolation schemes; parallel MDCI
   Dimitrios Manganas     : ROCIS; embedding schemes
   Dimitrios Pantazis     : SARC Basis sets
   Taras Petrenko         : DFT Hessian,TD-DFT gradient, ASA, ECA, R-Raman, ABS, FL, XAS/XES, NRVS
   Peter Pinski           : DLPNO-MP2
   Christoph Reimann      : Effective Core Potentials
   Marius Retegan         : Local ZFS, SOC
   Christoph Riplinger    : Optimizer, TS searches, QM/MM, DLPNO-CCSD(T), (RO)-DLPNO pert. Triples
   Tobias Risthaus        : Range-separated hybrids, TD-DFT gradient, RPA, STAB
   Michael Roemelt        : Restricted open shell CIS
   Masaaki Saitow         : Open-shell DLPNO
   Barbara Sandhoefer     : DKH picture change effects
   Kantharuban Sivalingam : CASSCF convergence, NEVPT2, FIC-MRCI
   Georgi Stoychev        : AutoAux
   Boris Wezisla          : Elementary symmetry handling
   Frank Wennmohs         : Technical directorship


 We gratefully acknowledge several colleagues who have allowed us to
 interface, adapt or use parts of their codes:
   Stefan Grimme, W. Hujo, H. Kruse,             : VdW corrections, initial TS optimization,
                  C. Bannwarth                     DFT functionals, gCP, sTDA/sTD-DF
   Ed Valeev                                     : LibInt (2-el integral package), F12 methods
   Garnet Chan, S. Sharma, J. Yang, R. Olivares  : DMRG
   Ulf Ekstrom                                   : XCFun DFT Library
   Mihaly Kallay                                 : mrcc  (arbitrary order and MRCC methods)
   Andreas Klamt, Michael Diedenhofen            : otool_cosmo (COSMO solvation model)
   Jiri Pittner, Ondrej Demel                    : Mk-CCSD
   Frank Weinhold                                : gennbo (NPA and NBO analysis)
   Christopher J. Cramer and Donald G. Truhlar   : smd solvation model


 Your calculation uses the libint2 library for the computation of 2-el integrals
 For citations please refer to: http://libint.valeyev.net

 This ORCA versions uses:
   CBLAS   interface :  Fast vector & matrix operations
   LAPACKE interface :  Fast linear algebra routines
   SCALAPACK package :  Parallel linear algebra routines




*****************************************
The coordinations will be read from file: C2H5OH.xyz
*****************************************


Your calculation utilizes the basis: def2-TZVP
   F. Weigend and R. Ahlrichs, Phys. Chem. Chem. Phys. 7, 3297 (2005).

Your calculation utilizes the auxiliary basis: def2/J
   F. Weigend, Phys. Chem. Chem. Phys. 8, 1057 (2006).

================================================================================
                                        WARNINGS
                       Please study these warnings very carefully!
================================================================================

Warning: TCutStore was < 0. Adjusted to Thresh (uncritical)

WARNING: Geometry Optimization
  ===> : Switching off AutoStart
         For restart on a previous wavefunction, please use MOREAD

INFO   : the flag for use of LIBINT has been found!

================================================================================
                                       INPUT FILE
================================================================================
NAME = opt.inp
|  1> # avogadro generated ORCA input file 
|  2> # Basic Mode
|  3> # 
|  4> ! PBE OPT def2-TZVP
|  5> 
|  6> * xyzfile 0 1 C2H5OH.xyz
|  7> 
|  8> 
|  9>                          ****END OF INPUT****
================================================================================

                       *****************************
                       * Geometry Optimization Run *
                       *****************************

Geometry optimization settings:
Update method            Update   .... BFGS
Choice of coordinates    CoordSys .... Redundant Internals
Initial Hessian          InHess   .... Almoef's Model

Convergence Tolerances:
Energy Change            TolE     ....  5.0000e-06 Eh
Max. Gradient            TolMAXG  ....  3.0000e-04 Eh/bohr
RMS Gradient             TolRMSG  ....  1.0000e-04 Eh/bohr
Max. Displacement        TolMAXD  ....  4.0000e-03 bohr
RMS Displacement         TolRMSD  ....  2.0000e-03 bohr

------------------------------------------------------------------------------
                        ORCA OPTIMIZATION COORDINATE SETUP
------------------------------------------------------------------------------

The optimization will be done in new redundant internal coordinates
Making redundant internal coordinates   ...  (new redundants) done
Evaluating the initial hessian          ...  (Almloef) done
Evaluating the coordinates              ...  done
Calculating the B-matrix                .... done
Calculating the G-matrix                .... done
Diagonalizing the G-matrix              .... done
The first mode is                       ....   12
The number of degrees of freedom        ....   21

    -----------------------------------------------------------------
                    Redundant Internal Coordinates


    -----------------------------------------------------------------
         Definition                    Initial Value    Approx d2E/dq
    -----------------------------------------------------------------
      1. B(C   1,C   0)                  1.5400         0.360100   
      2. B(O   2,C   1)                  1.5000         0.373575   
      3. B(H   3,O   2)                  1.0500         0.373575   
      4. B(H   4,C   1)                  1.0900         0.360100   
      5. B(H   5,C   1)                  1.0900         0.360100   
      6. B(H   6,C   0)                  1.0900         0.360100   
      7. B(H   7,C   0)                  1.0900         0.360100   
      8. B(H   8,C   0)                  1.0900         0.360100   
      9. A(C   1,C   0,H   8)          109.4712         0.322370   
     10. A(C   1,C   0,H   6)          109.4712         0.322370   
     11. A(H   7,C   0,H   8)          109.4712         0.290839   
     12. A(H   6,C   0,H   8)          109.4712         0.290839   
     13. A(H   6,C   0,H   7)          109.4712         0.290839   
     14. A(C   1,C   0,H   7)          109.4712         0.322370   
     15. A(H   4,C   1,H   5)          109.4712         0.290839   
     16. A(O   2,C   1,H   5)          109.4712         0.322382   
     17. A(C   0,C   1,H   4)          109.4712         0.322370   
     18. A(C   0,C   1,H   5)          109.4712         0.322370   
     19. A(O   2,C   1,H   4)          109.4712         0.322382   
     20. A(C   0,C   1,O   2)          109.4712         0.358841   
     21. A(C   1,O   2,H   3)          109.4712         0.321589   
     22. D(H   4,C   1,C   0,H   8)    180.0000         0.010403   
     23. D(O   2,C   1,C   0,H   7)    -60.0000         0.010403   
     24. D(H   4,C   1,C   0,H   6)    -60.0000         0.010403   
     25. D(O   2,C   1,C   0,H   6)   -180.0000         0.010403   
     26. D(O   2,C   1,C   0,H   8)     60.0000         0.010403   
     27. D(H   5,C   1,C   0,H   6)     60.0000         0.010403   
     28. D(H   5,C   1,C   0,H   7)   -180.0000         0.010403   
     29. D(H   5,C   1,C   0,H   8)    -60.0000         0.010403   
     30. D(H   4,C   1,C   0,H   7)     60.0000         0.010403   
     31. D(H   3,O   2,C   1,H   5)    -60.0000         0.011085   
     32. D(H   3,O   2,C   1,H   4)     60.0000         0.011085   
     33. D(H   3,O   2,C   1,C   0)   -180.0000         0.011085   
    -----------------------------------------------------------------

Number of atoms                         .... 9
Number of degrees of freedom            .... 33

         *************************************************************
         *                GEOMETRY OPTIMIZATION CYCLE   1            *
         *************************************************************
---------------------------------
CARTESIAN COORDINATES (ANGSTROEM)
---------------------------------
  C      0.000000    0.000000    0.000000
  C     -1.376219    0.379488   -0.577589
  O     -2.050641   -0.849485   -1.111237
  H     -2.988972   -0.590743   -1.505048
  H     -1.991046    0.819382    0.207638
  H     -1.245390    1.101248   -1.383844
  H      0.490080    0.893054    0.387785
  H     -0.130829   -0.721759    0.806255
  H      0.614827   -0.439894   -0.785227

----------------------------
CARTESIAN COORDINATES (A.U.)
----------------------------
  NO LB      ZA    FRAG     MASS         X           Y           Z
   0 C     6.0000    0    12.011    0.000000    0.000000    0.000000
   1 C     6.0000    0    12.011   -2.600678    0.717129   -1.091484
   2 O     8.0000    0    15.999   -3.875150   -1.605293   -2.099934
   3 H     1.0000    0     1.008   -5.648339   -1.116342   -2.844128
   4 H     1.0000    0     1.008   -3.762533    1.548408    0.392380
   5 H     1.0000    0     1.008   -2.353446    2.081057   -2.615086
   6 H     1.0000    0     1.008    0.926116    1.687627    0.732807
   7 H     1.0000    0     1.008   -0.247231   -1.363927    1.523601
   8 H     1.0000    0     1.008    1.161855   -0.831278   -1.483864

--------------------------------
INTERNAL COORDINATES (ANGSTROEM)
--------------------------------
 C      0   0   0     0.000000000000     0.00000000     0.00000000
 C      1   0   0     1.540000002588     0.00000000     0.00000000
 O      2   1   0     1.499999999497   109.47122049     0.00000000
 H      3   2   1     1.049999996504   109.47122077   180.00000000
 H      2   1   3     1.089999998363   109.47122078   119.99999955
 H      2   1   3     1.089999998048   109.47122025   239.99999984
 H      1   2   3     1.090000003050   109.47122065   180.00000000
 H      1   2   3     1.089999996848   109.47122077   300.00000020
 H      1   2   3     1.090000002399   109.47122085    59.99999995

---------------------------
INTERNAL COORDINATES (A.U.)
---------------------------
 C      0   0   0     0.000000000000     0.00000000     0.00000000
 C      1   0   0     2.910178251129     0.00000000     0.00000000
 O      2   1   0     2.834589199932   109.47122049     0.00000000
 H      3   2   1     1.984212434010   109.47122077   180.00000000
 H      2   1   3     2.059801482881   109.47122078   119.99999955
 H      2   1   3     2.059801482286   109.47122025   239.99999984
 H      1   2   3     2.059801491738   109.47122065   180.00000000
 H      1   2   3     2.059801480018   109.47122077   300.00000020
 H      1   2   3     2.059801490508   109.47122085    59.99999995

---------------------
BASIS SET INFORMATION
---------------------
There are 3 groups of distinct atoms

 Group   1 Type C   : 11s6p2d1f contracted to 5s3p2d1f pattern {62111/411/11/1}
 Group   2 Type O   : 11s6p2d1f contracted to 5s3p2d1f pattern {62111/411/11/1}
 Group   3 Type H   : 5s1p contracted to 3s1p pattern {311/1}

Atom   0C    basis set group =>   1
Atom   1C    basis set group =>   1
Atom   2O    basis set group =>   2
Atom   3H    basis set group =>   3
Atom   4H    basis set group =>   3
Atom   5H    basis set group =>   3
Atom   6H    basis set group =>   3
Atom   7H    basis set group =>   3
Atom   8H    basis set group =>   3
-------------------------------
AUXILIARY BASIS SET INFORMATION
-------------------------------
There are 3 groups of distinct atoms

 Group   1 Type C   : 12s5p4d2f1g contracted to 6s4p3d1f1g pattern {711111/2111/211/2/1}
 Group   2 Type O   : 12s5p4d2f1g contracted to 6s4p3d1f1g pattern {711111/2111/211/2/1}
 Group   3 Type H   : 5s2p1d contracted to 3s1p1d pattern {311/2/1}

Atom   0C    basis set group =>   1
Atom   1C    basis set group =>   1
Atom   2O    basis set group =>   2
Atom   3H    basis set group =>   3
Atom   4H    basis set group =>   3
Atom   5H    basis set group =>   3
Atom   6H    basis set group =>   3
Atom   7H    basis set group =>   3
Atom   8H    basis set group =>   3
------------------------------------------------------------------------------
                           ORCA GTO INTEGRAL CALCULATION
                           -- RI-GTO INTEGRALS CHOSEN --
------------------------------------------------------------------------------

                         BASIS SET STATISTICS AND STARTUP INFO

Gaussian basis set:
 # of primitive gaussian shells          ...   96
 # of primitive gaussian functions       ...  186
 # of contracted shells                  ...   57
 # of contracted basis functions         ...  129
 Highest angular momentum                ...    3
 Maximum contraction depth               ...    6
Auxiliary gaussian basis set:
 # of primitive gaussian shells          ...  120
 # of primitive gaussian functions       ...  306
 # of contracted shells                  ...   75
 # of contracted aux-basis functions     ...  213
 Highest angular momentum                ...    4
 Maximum contraction depth               ...    7
Ratio of auxiliary to basis functions    ...  1.65
Integral package used                  ... LIBINT
 One Electron integrals                  ... done
 Ordering auxiliary basis shells         ... done
 Integral threshhold             Thresh  ...  2.500e-11
 Primitive cut-off               TCut    ...  2.500e-12
 Pre-screening matrix                    ... done
 Shell pair data                         ... 
 Ordering of the shell pairs             ... done (   0.000 sec) 1629 of 1653 pairs
 Determination of significant pairs      ... done (   0.000 sec)
 Creation of shell pair data             ... done (   0.001 sec)
 Storage of shell pair data              ... done (   0.006 sec)
 Shell pair data done in (   0.007 sec)
 Computing two index integrals           ... done
 Cholesky decomposition of the V-matrix  ... done


Timings:
 Total evaluation time                   ...   0.217 sec (  0.004 min)
 One electron matrix time                ...   0.016 sec (  0.000 min) =  7.5%
 Schwartz matrix evaluation time         ...   0.155 sec (  0.003 min) = 71.5%
 Two index repulsion integral time       ...   0.005 sec (  0.000 min) =  2.2%
 Cholesky decomposition of V             ...   0.004 sec (  0.000 min) =  2.0%
 Three index repulsion integral time     ...   0.000 sec (  0.000 min) =  0.0%

-------------------------------------------------------------------------------
                                 ORCA SCF
-------------------------------------------------------------------------------

------------
SCF SETTINGS
------------
Hamiltonian:
 Density Functional     Method          .... DFT(GTOs)
 Exchange Functional    Exchange        .... PBE
   PBE kappa parameter   XKappa         ....  0.804000
   PBE mue parameter    XMuePBE         ....  0.219520
 Correlation Functional Correlation     .... PBE
   PBE beta parameter  CBetaPBE         ....  0.066725
 LDA part of GGA corr.  LDAOpt          .... PW91-LDA
 Gradients option       PostSCFGGA      .... off
   NL short-range parameter             ....  6.400000
 RI-approximation to the Coulomb term is turned on
   Number of auxiliary basis functions  .... 213


General Settings:
 Integral files         IntName         .... opt
 Hartree-Fock type      HFTyp           .... RHF
 Total Charge           Charge          ....    0
 Multiplicity           Mult            ....    1
 Number of Electrons    NEL             ....   26
 Basis Dimension        Dim             ....  129
 Nuclear Repulsion      ENuc            ....     79.4850685638 Eh

Convergence Acceleration:
 DIIS                   CNVDIIS         .... on
   Start iteration      DIISMaxIt       ....    12
   Startup error        DIISStart       ....  0.200000
   # of expansion vecs  DIISMaxEq       ....     5
   Bias factor          DIISBfac        ....   1.050
   Max. coefficient     DIISMaxC        ....  10.000
 Newton-Raphson         CNVNR           .... off
 SOSCF                  CNVSOSCF        .... on
   Start iteration      SOSCFMaxIt      ....   150
   Startup grad/error   SOSCFStart      ....  0.003300
 Level Shifting         CNVShift        .... on
   Level shift para.    LevelShift      ....    0.2500
   Turn off err/grad.   ShiftErr        ....    0.0010
 Zerner damping         CNVZerner       .... off
 Static damping         CNVDamp         .... on
   Fraction old density DampFac         ....    0.7000
   Max. Damping (<1)    DampMax         ....    0.9800
   Min. Damping (>=0)   DampMin         ....    0.0000
   Turn off err/grad.   DampErr         ....    0.1000
 Fernandez-Rico         CNVRico         .... off

SCF Procedure:
 Maximum # iterations   MaxIter         ....   125
 SCF integral mode      SCFMode         .... Direct
   Integral package                     .... LIBINT
 Reset frequeny         DirectResetFreq ....    20
 Integral Threshold     Thresh          ....  2.500e-11 Eh
 Primitive CutOff       TCut            ....  2.500e-12 Eh

Convergence Tolerance:
 Convergence Check Mode ConvCheckMode   .... Total+1el-Energy
 Convergence forced     ConvForced      .... 0
 Energy Change          TolE            ....  1.000e-08 Eh
 1-El. energy change                    ....  1.000e-05 Eh
 Orbital Gradient       TolG            ....  1.000e-05
 Orbital Rotation angle TolX            ....  1.000e-05
 DIIS Error             TolErr          ....  5.000e-07


Diagonalization of the overlap matrix:
Smallest eigenvalue                        ... 5.788e-04
Time for diagonalization                   ...    0.004 sec
Threshold for overlap eigenvalues          ... 1.000e-08
Number of eigenvalues below threshold      ... 0
Time for construction of square roots      ...    0.003 sec
Total time needed                          ...    0.007 sec

-------------------
DFT GRID GENERATION
-------------------

General Integration Accuracy     IntAcc      ...  4.340
Radial Grid Type                 RadialGrid  ... Gauss-Chebyshev
Angular Grid (max. acc.)         AngularGrid ... Lebedev-110
Angular grid pruning method      GridPruning ... 3 (G Style)
Weight generation scheme         WeightScheme... Becke
Basis function cutoff            BFCut       ...    1.0000e-11
Integration weight cutoff        WCut        ...    1.0000e-14
Grids for H and He will be reduced by one unit

# of grid points (after initial pruning)     ...   9792 (   0.0 sec)
# of grid points (after weights+screening)   ...   9370 (   0.0 sec)
nearest neighbour list constructed           ...    0.0 sec
Grid point re-assignment to atoms done       ...    0.0 sec
Grid point division into batches done        ...    0.0 sec
Reduced shell lists constructed in    0.1 sec

Total number of grid points                  ...     9370
Total number of batches                      ...      152
Average number of points per batch           ...       61
Average number of grid points per atom       ...     1041
Average number of shells per batch           ...    46.05 (80.79%)
Average number of basis functions per batch  ...   106.59 (82.63%)
Average number of large shells per batch     ...    39.65 (86.11%)
Average number of large basis fcns per batch ...    91.98 (86.30%)
Maximum spatial batch extension              ...  22.44, 20.78, 21.69 au
Average spatial batch extension              ...   4.30,  4.34,  4.26 au

Time for grid setup =    0.139 sec

------------------------------
INITIAL GUESS: MODEL POTENTIAL
------------------------------
Loading Hartree-Fock densities                     ... done
Calculating cut-offs                               ... done
Setting up the integral package                    ... done
Initializing the effective Hamiltonian             ... done
Starting the Coulomb interaction                   ... done (   0.1 sec)
Reading the grid                                   ... done
Mapping shells                                     ... done
Starting the XC term evaluation                    ... done (   0.2 sec)
  promolecular density results
     # of electrons  =     26.007879696
     EX              =    -20.094926937
     EC              =     -0.829740984
     EX+EC           =    -20.924667921
Transforming the Hamiltonian                       ... done (   0.0 sec)
Diagonalizing the Hamiltonian                      ... done (   0.0 sec)
Back transforming the eigenvectors                 ... done (   0.0 sec)
Now organizing SCF variables                       ... done
                      ------------------
                      INITIAL GUESS DONE (   0.5 sec)
                      ------------------
--------------
SCF ITERATIONS
--------------
ITER       Energy         Delta-E        Max-DP      RMS-DP      [F,P]     Damp
               ***  Starting incremental Fock matrix formation  ***
  0   -154.7722961387   0.000000000000 0.05196237  0.00206882  0.2415403 0.7000
  1   -154.8372145069  -0.064918368254 0.03759546  0.00141372  0.0820692 0.7000
                               ***Turning on DIIS***
  2   -154.8562092509  -0.018994743956 0.04545881  0.00180705  0.0211785 0.0000
  3   -154.8908033282  -0.034594077320 0.03287236  0.00101947  0.0541267 0.0000
  4   -154.8982595548  -0.007456226560 0.00736876  0.00026850  0.0176228 0.0000
  5   -154.8989959156  -0.000736360788 0.00214696  0.00011364  0.0063588 0.0000
                      *** Initiating the SOSCF procedure ***
                           *** Shutting down DIIS ***
                      *** Re-Reading the Fockian *** 
                      *** Removing any level shift *** 
ITER      Energy       Delta-E        Grad      Rot      Max-DP    RMS-DP
  6   -154.89905872  -0.0000628056  0.000318  0.000318  0.001496  0.000075
               *** Restarting incremental Fock matrix formation ***
  7   -154.89906058  -0.0000018585  0.000163  0.000299  0.000635  0.000021
  8   -154.89905982   0.0000007603  0.000343  0.000174  0.000356  0.000013
  9   -154.89906092  -0.0000011019  0.000037  0.000057  0.000093  0.000003
 10   -154.89906087   0.0000000530  0.000063  0.000043  0.000058  0.000002
 11   -154.89906094  -0.0000000756  0.000003  0.000007  0.000008  0.000000
 12   -154.89906095  -0.0000000021  0.000003  0.000003  0.000003  0.000000
                 **** Energy Check signals convergence ****
              ***Rediagonalizing the Fockian in SOSCF/NRSCF***

               *****************************************************
               *                     SUCCESS                       *
               *           SCF CONVERGED AFTER  13 CYCLES          *
               *****************************************************

Setting up the final grid:

General Integration Accuracy     IntAcc      ...  4.670
Radial Grid Type                 RadialGrid  ... Gauss-Chebyshev
Angular Grid (max. acc.)         AngularGrid ... Lebedev-302
Angular grid pruning method      GridPruning ... 3 (G Style)
Weight generation scheme         WeightScheme... Becke
Basis function cutoff            BFCut       ...    1.0000e-11
Integration weight cutoff        WCut        ...    1.0000e-14
Grids for H and He will be reduced by one unit

# of grid points (after initial pruning)     ...  39000 (   0.0 sec)
# of grid points (after weights+screening)   ...  37071 (   0.0 sec)
nearest neighbour list constructed           ...    0.0 sec
Grid point re-assignment to atoms done       ...    0.0 sec
Grid point division into batches done        ...    0.1 sec
Reduced shell lists constructed in    3.0 sec

Total number of grid points                  ...    37071
Total number of batches                      ...      584
Average number of points per batch           ...       63
Average number of grid points per atom       ...     4119
Average number of shells per batch           ...    42.41 (74.40%)
Average number of basis functions per batch  ...    97.98 (75.95%)
Average number of large shells per batch     ...    35.68 (84.12%)
Average number of large basis fcns per batch ...    82.16 (83.86%)
Maximum spatial batch extension              ...  17.62, 18.15, 18.79 au
Average spatial batch extension              ...   2.75,  2.89,  2.76 au

Final grid set up in    3.4 sec
Final integration                            ... done (   1.7 sec)
Change in XC energy                          ...     0.001490851
Integrated number of electrons               ...    25.999981087
Previous integrated no of electrons          ...    26.007416068

----------------
TOTAL SCF ENERGY
----------------

Total Energy       :         -154.89757009 Eh           -4214.97717 eV

Components:
Nuclear Repulsion  :           79.48506856 Eh            2162.89868 eV
Electronic Energy  :         -234.38263866 Eh           -6377.87584 eV
One Electron Energy:         -367.37671324 Eh           -9996.82860 eV
Two Electron Energy:          132.99407458 Eh            3618.95275 eV

Virial components:
Potential Energy   :         -308.91600066 Eh           -8406.03173 eV
Kinetic Energy     :          154.01843056 Eh            4191.05456 eV
Virial Ratio       :            2.00570802


DFT components:
N(Alpha)           :       12.999990543403 electrons
N(Beta)            :       12.999990543403 electrons
N(Total)           :       25.999981086806 electrons
E(X)               :      -20.584960340543 Eh       
E(C)               :       -0.836763770142 Eh       
E(XC)              :      -21.421724110686 Eh       

---------------
SCF CONVERGENCE
---------------

  Last Energy change         ...    1.0331e-09  Tolerance :   1.0000e-08
  Last MAX-Density change    ...    5.4769e-07  Tolerance :   1.0000e-07
  Last RMS-Density change    ...    2.0466e-08  Tolerance :   5.0000e-09
  Last Orbital Gradient      ...    1.8879e-07  Tolerance :   1.0000e-05
  Last Orbital Rotation      ...    3.0071e-07  Tolerance :   1.0000e-05

             **** THE GBW FILE WAS UPDATED (opt.gbw) ****
             **** DENSITY FILE WAS UPDATED (opt.scfp.tmp) ****
             **** ENERGY FILE WAS UPDATED (opt.en.tmp) ****
----------------
ORBITAL ENERGIES
----------------

  NO   OCC          E(Eh)            E(eV) 
   0   2.0000     -18.748283      -510.1667 
   1   2.0000      -9.928303      -270.1629 
   2   2.0000      -9.873559      -268.6732 
   3   2.0000      -0.893615       -24.3165 
   4   2.0000      -0.676481       -18.4080 
   5   2.0000      -0.548048       -14.9131 
   6   2.0000      -0.444383       -12.0923 
   7   2.0000      -0.411882       -11.2079 
   8   2.0000      -0.349291        -9.5047 
   9   2.0000      -0.340620        -9.2687 
  10   2.0000      -0.321446        -8.7470 
  11   2.0000      -0.283921        -7.7259 
  12   2.0000      -0.221533        -6.0282 
  13   0.0000      -0.003742        -0.1018 
  14   0.0000       0.034432         0.9369 
  15   0.0000       0.069336         1.8867 
  16   0.0000       0.082522         2.2455 
  17   0.0000       0.093337         2.5398 
  18   0.0000       0.100786         2.7425 
  19   0.0000       0.114248         3.1089 
  20   0.0000       0.142530         3.8784 
  21   0.0000       0.183407         4.9908 
  22   0.0000       0.211178         5.7464 
  23   0.0000       0.239184         6.5085 
  24   0.0000       0.259521         7.0619 
  25   0.0000       0.269612         7.3365 
  26   0.0000       0.312048         8.4912 
  27   0.0000       0.364489         9.9182 
  28   0.0000       0.372934        10.1481 
  29   0.0000       0.397936        10.8284 
  30   0.0000       0.403621        10.9831 
  31   0.0000       0.418753        11.3949 
  32   0.0000       0.446170        12.1409 
  33   0.0000       0.449610        12.2345 
  34   0.0000       0.480773        13.0825 
  35   0.0000       0.505469        13.7545 
  36   0.0000       0.511817        13.9273 
  37   0.0000       0.580964        15.8088 
  38   0.0000       0.638495        17.3743 
  39   0.0000       0.733655        19.9638 
  40   0.0000       0.774715        21.0811 
  41   0.0000       0.790760        21.5177 
  42   0.0000       0.807301        21.9678 
  43   0.0000       0.880704        23.9652 
  44   0.0000       0.932147        25.3650 
  45   0.0000       0.997883        27.1538 
  46   0.0000       1.004530        27.3347 
  47   0.0000       1.036816        28.2132 
  48   0.0000       1.069750        29.1094 
  49   0.0000       1.249690        34.0058 
  50   0.0000       1.377044        37.4713 
  51   0.0000       1.420412        38.6514 
  52   0.0000       1.421979        38.6940 
  53   0.0000       1.458818        39.6965 
  54   0.0000       1.464920        39.8625 
  55   0.0000       1.479412        40.2568 
  56   0.0000       1.500956        40.8431 
  57   0.0000       1.528284        41.5867 
  58   0.0000       1.537285        41.8317 
  59   0.0000       1.649323        44.8804 
  60   0.0000       1.691096        46.0171 
  61   0.0000       1.722198        46.8634 
  62   0.0000       1.732932        47.1555 
  63   0.0000       1.811961        49.3060 
  64   0.0000       1.825354        49.6704 
  65   0.0000       1.894463        51.5510 
  66   0.0000       1.965944        53.4960 
  67   0.0000       1.977644        53.8144 
  68   0.0000       1.994302        54.2677 
  69   0.0000       2.108666        57.3797 
  70   0.0000       2.161904        58.8284 
  71   0.0000       2.195503        59.7427 
  72   0.0000       2.248456        61.1836 
  73   0.0000       2.252960        61.3062 
  74   0.0000       2.264085        61.6089 
  75   0.0000       2.358828        64.1870 
  76   0.0000       2.360737        64.2389 
  77   0.0000       2.424416        65.9717 
  78   0.0000       2.478132        67.4334 
  79   0.0000       2.488783        67.7232 
  80   0.0000       2.494393        67.8759 
  81   0.0000       2.546423        69.2917 
  82   0.0000       2.562046        69.7168 
  83   0.0000       2.634638        71.6921 
  84   0.0000       2.660208        72.3879 
  85   0.0000       2.700169        73.4753 
  86   0.0000       2.748439        74.7888 
  87   0.0000       2.835946        77.1700 
  88   0.0000       2.945641        80.1550 
  89   0.0000       2.965551        80.6967 
  90   0.0000       3.020799        82.2001 
  91   0.0000       3.026390        82.3522 
  92   0.0000       3.052814        83.0713 
  93   0.0000       3.133421        85.2647 
  94   0.0000       3.150091        85.7183 
  95   0.0000       3.185073        86.6702 
  96   0.0000       3.238159        88.1148 
  97   0.0000       3.270548        88.9961 
  98   0.0000       3.394838        92.3783 
  99   0.0000       3.412264        92.8524 
 100   0.0000       3.440478        93.6202 
 101   0.0000       3.607095        98.1540 
 102   0.0000       3.655297        99.4657 
 103   0.0000       3.661717        99.6404 
 104   0.0000       3.780705       102.8782 
 105   0.0000       3.803825       103.5073 
 106   0.0000       3.886378       105.7537 
 107   0.0000       4.127987       112.3282 
 108   0.0000       4.147736       112.8656 
 109   0.0000       4.258657       115.8839 
 110   0.0000       4.309641       117.2713 
 111   0.0000       4.412694       120.0755 
 112   0.0000       4.502426       122.5172 
 113   0.0000       4.650616       126.5497 
 114   0.0000       5.116112       139.2165 
 115   0.0000       5.183562       141.0519 
 116   0.0000       5.269487       143.3900 
 117   0.0000       5.494636       149.5166 
 118   0.0000       5.539351       150.7334 
 119   0.0000       5.613002       152.7375 
 120   0.0000       5.896628       160.4554 
 121   0.0000       6.285726       171.0433 
 122   0.0000       6.484019       176.4391 
 123   0.0000       6.539164       177.9397 
 124   0.0000       6.841034       186.1540 
 125   0.0000       6.904624       187.8844 
 126   0.0000      21.951526       597.3314 
 127   0.0000      22.036911       599.6548 
 128   0.0000      43.276424      1177.6114 

                    ********************************
                    * MULLIKEN POPULATION ANALYSIS *
                    ********************************

-----------------------
MULLIKEN ATOMIC CHARGES
-----------------------
   0 C :   -0.318616
   1 C :   -0.091144
   2 O :   -0.446468
   3 H :    0.295472
   4 H :    0.100718
   5 H :    0.105434
   6 H :    0.110108
   7 H :    0.123315
   8 H :    0.121182
Sum of atomic charges:   -0.0000000

--------------------------------
MULLIKEN REDUCED ORBITAL CHARGES
--------------------------------
  0 C s       :     3.231545  s :     3.231545
      pz      :     1.051325  p :     3.039710
      px      :     0.956632
      py      :     1.031753
      dz2     :     0.005433  d :     0.044231
      dxz     :     0.012525
      dyz     :     0.009601
      dx2y2   :     0.007180
      dxy     :     0.009492
      f0      :     0.000010  f :     0.003130
      f+1     :     0.000626
      f-1     :     0.000309
      f+2     :     0.000712
      f-2     :     0.000704
      f+3     :     0.000484
      f-3     :     0.000284
  1 C s       :     3.255639  s :     3.255639
      pz      :     0.977520  p :     2.710842
      px      :     0.924902
      py      :     0.808420
      dz2     :     0.014651  d :     0.116648
      dxz     :     0.021188
      dyz     :     0.025005
      dx2y2   :     0.029092
      dxy     :     0.026713
      f0      :     0.000330  f :     0.008014
      f+1     :     0.000931
      f-1     :     0.001357
      f+2     :     0.001253
      f-2     :     0.001302
      f+3     :     0.001254
      f-3     :     0.001589
  2 O s       :     3.825074  s :     3.825074
      pz      :     1.763244  p :     4.595516
      px      :     1.356807
      py      :     1.475464
      dz2     :     0.002895  d :     0.024649
      dxz     :     0.003014
      dyz     :     0.004764
      dx2y2   :     0.008089
      dxy     :     0.005888
      f0      :     0.000263  f :     0.001229
      f+1     :     0.000125
      f-1     :     0.000114
      f+2     :     0.000224
      f-2     :     0.000216
      f+3     :     0.000140
      f-3     :     0.000147
  3 H s       :     0.665595  s :     0.665595
      pz      :     0.013977  p :     0.038934
      px      :     0.015884
      py      :     0.009073
  4 H s       :     0.879422  s :     0.879422
      pz      :     0.008161  p :     0.019859
      px      :     0.006717
      py      :     0.004981
  5 H s       :     0.874574  s :     0.874574
      pz      :     0.008326  p :     0.019992
      px      :     0.004447
      py      :     0.007219
  6 H s       :     0.868875  s :     0.868875
      pz      :     0.005575  p :     0.021018
      px      :     0.006419
      py      :     0.009024
  7 H s       :     0.855493  s :     0.855493
      pz      :     0.008559  p :     0.021192
      px      :     0.004592
      py      :     0.008041
  8 H s       :     0.858134  s :     0.858134
      pz      :     0.007882  p :     0.020684
      px      :     0.006995
      py      :     0.005808


                     *******************************
                     * LOEWDIN POPULATION ANALYSIS *
                     *******************************

----------------------
LOEWDIN ATOMIC CHARGES
----------------------
   0 C :   -0.319559
   1 C :   -0.343392
   2 O :   -0.133831
   3 H :    0.202986
   4 H :    0.111451
   5 H :    0.111815
   6 H :    0.124473
   7 H :    0.122974
   8 H :    0.123083

-------------------------------
LOEWDIN REDUCED ORBITAL CHARGES
-------------------------------
  0 C s       :     2.847662  s :     2.847662
      pz      :     1.080779  p :     3.211600
      px      :     1.056534
      py      :     1.074287
      dz2     :     0.025414  d :     0.236768
      dxz     :     0.060076
      dyz     :     0.055838
      dx2y2   :     0.042720
      dxy     :     0.052720
      f0      :     0.002348  f :     0.023529
      f+1     :     0.005484
      f-1     :     0.002039
      f+2     :     0.003098
      f-2     :     0.002702
      f+3     :     0.004565
      f-3     :     0.003292
  1 C s       :     2.837335  s :     2.837335
      pz      :     1.037394  p :     2.955824
      px      :     1.020830
      py      :     0.897600
      dz2     :     0.055557  d :     0.493983
      dxz     :     0.086617
      dyz     :     0.134703
      dx2y2   :     0.107612
      dxy     :     0.109495
      f0      :     0.004753  f :     0.056250
      f+1     :     0.008310
      f-1     :     0.008305
      f+2     :     0.006301
      f-2     :     0.006999
      f+3     :     0.011009
      f-3     :     0.010573
  2 O s       :     3.462968  s :     3.462968
      pz      :     1.714493  p :     4.612211
      px      :     1.369953
      py      :     1.527766
      dz2     :     0.006048  d :     0.055454
      dxz     :     0.008623
      dyz     :     0.009888
      dx2y2   :     0.018674
      dxy     :     0.012221
      f0      :     0.000460  f :     0.003198
      f+1     :     0.000134
      f-1     :     0.000352
      f+2     :     0.000456
      f-2     :     0.000536
      f+3     :     0.000523
      f-3     :     0.000739
  3 H s       :     0.673824  s :     0.673824
      pz      :     0.036363  p :     0.123190
      px      :     0.059472
      py      :     0.027355
  4 H s       :     0.827749  s :     0.827749
      pz      :     0.026604  p :     0.060800
      px      :     0.019306
      py      :     0.014890
  5 H s       :     0.827409  s :     0.827409
      pz      :     0.025273  p :     0.060777
      px      :     0.013785
      py      :     0.021718
  6 H s       :     0.813208  s :     0.813208
      pz      :     0.016581  p :     0.062319
      px      :     0.017531
      py      :     0.028207
  7 H s       :     0.814464  s :     0.814464
      pz      :     0.025275  p :     0.062562
      px      :     0.013746
      py      :     0.023542
  8 H s       :     0.814331  s :     0.814331
      pz      :     0.025522  p :     0.062586
      px      :     0.019780
      py      :     0.017284


                      *****************************
                      * MAYER POPULATION ANALYSIS *
                      *****************************

  NA   - Mulliken gross atomic population
  ZA   - Total nuclear charge
  QA   - Mulliken gross atomic charge
  VA   - Mayer's total valence
  BVA  - Mayer's bonded valence
  FA   - Mayer's free valence

  ATOM       NA         ZA         QA         VA         BVA        FA
  0 C      6.3186     6.0000    -0.3186     3.8560     3.8560     0.0000
  1 C      6.0911     6.0000    -0.0911     4.0076     4.0076     0.0000
  2 O      8.4465     8.0000    -0.4465     1.9445     1.9445    -0.0000
  3 H      0.7045     1.0000     0.2955     0.9196     0.9196    -0.0000
  4 H      0.8993     1.0000     0.1007     0.9453     0.9453     0.0000
  5 H      0.8946     1.0000     0.1054     0.9421     0.9421     0.0000
  6 H      0.8899     1.0000     0.1101     0.9749     0.9749     0.0000
  7 H      0.8767     1.0000     0.1233     0.9770     0.9770     0.0000
  8 H      0.8788     1.0000     0.1212     0.9808     0.9808    -0.0000

  Mayer bond orders larger than 0.1
B(  0-C ,  1-C ) :   1.0121 B(  0-C ,  6-H ) :   0.9533 B(  0-C ,  7-H ) :   0.9653 
B(  0-C ,  8-H ) :   0.9636 B(  1-C ,  2-O ) :   1.0605 B(  1-C ,  4-H ) :   0.9520 
B(  1-C ,  5-H ) :   0.9521 B(  2-O ,  3-H ) :   0.8918 

-------
TIMINGS
-------

Total SCF time: 0 days 0 hours 0 min 13 sec 

Total time                  ....      13.629 sec
Sum of individual times     ....      13.077 sec  ( 95.9%)

Fock matrix formation       ....       9.044 sec  ( 66.4%)
  Split-RI-J                ....       3.561 sec  ( 39.4% of F)
  XC integration            ....       5.062 sec  ( 56.0% of F)
    Basis function eval.    ....       1.395 sec  ( 27.6% of XC)
    Density eval.           ....       1.175 sec  ( 23.2% of XC)
    XC-Functional eval.     ....       0.720 sec  ( 14.2% of XC)
    XC-Potential eval.      ....       1.042 sec  ( 20.6% of XC)
Diagonalization             ....       0.035 sec  (  0.3%)
Density matrix formation    ....       0.002 sec  (  0.0%)
Population analysis         ....       0.011 sec  (  0.1%)
Initial guess               ....       0.364 sec  (  2.7%)
Orbital Transformation      ....       0.000 sec  (  0.0%)
Orbital Orthonormalization  ....       0.000 sec  (  0.0%)
DIIS solution               ....       0.036 sec  (  0.3%)
SOSCF solution              ....       0.049 sec  (  0.4%)
Grid generation             ....       3.535 sec  ( 25.9%)

-------------------------   --------------------
FINAL SINGLE POINT ENERGY      -154.897570094252
-------------------------   --------------------

------------------------------------------------------------------------------
                         ORCA SCF GRADIENT CALCULATION
------------------------------------------------------------------------------

Gradient of the Kohn-Sham DFT energy:
Kohn-Sham wavefunction type      ... RKS
Hartree-Fock exchange scaling    ...    0.000
Number of operators              ...    1
Number of atoms                  ...    9
Basis set dimensions             ...  129
Integral neglect threshold       ... 2.5e-11
Integral primitive cutoff        ... 2.5e-12

Nuclear repulsion gradient       ... done
One Electron Gradient            ... done
Pre-screening matrix             ... done
RI-J gradient                    ... done
Exchange-correlation gradient    ... done

------------------
CARTESIAN GRADIENT
------------------

   1   C   :    0.020745329    0.002191368    0.010069030
   2   C   :    0.003366876    0.026243580    0.006122724
   3   O   :    0.029778510   -0.028963904    0.008874296
   4   H   :   -0.051631357    0.007876413   -0.022806116
   5   H   :    0.005708448   -0.003623318   -0.004754890
   6   H   :    0.000624183   -0.005470721    0.006136760
   7   H   :   -0.002520737   -0.004440225   -0.001901987
   8   H   :   -0.001398670    0.003666980   -0.004248243
   9   H   :   -0.004672582    0.002519828    0.002508426

Difference to translation invariance:
           :   -0.0000000000   -0.0000000000    0.0000000000

Norm of the cartesian gradient     ...    0.0809962612
RMS gradient                       ...    0.0155877377
MAX gradient                       ...    0.0516313574

-------
TIMINGS
-------

Total SCF gradient time            ...        3.194 sec

One electron gradient       ....       0.056 sec  (  1.8%)
Prescreening matrices       ....       0.163 sec  (  5.1%)
RI-J Coulomb gradient       ....       0.528 sec  ( 16.5%)
XC gradient                 ....       2.289 sec  ( 71.7%)
------------------------------------------------------------------------------
                         ORCA GEOMETRY RELAXATION STEP
------------------------------------------------------------------------------

Reading the OPT-File                    .... done
Getting information on internals        .... done
Copying old internal coords+grads       .... done
Making the new internal coordinates     .... (new redundants).... done
Validating the new internal coordinates .... (new redundants).... done
Calculating the B-matrix                .... done
Calculating the G,G- and P matrices     .... done
Transforming gradient to internals      .... done
Projecting the internal gradient        .... done
Number of atoms                         ....   9
Number of internal coordinates          ....  33
Current Energy                          ....  -154.897570094 Eh
Current gradient norm                   ....     0.080996261 Eh/bohr
Maximum allowed component of the step   ....  0.300
Current trust radius                    ....  0.300
Evaluating the initial hessian          ....  (Almloef) done
Projecting the Hessian                  .... done
Forming the augmented Hessian           .... done
Diagonalizing the augmented Hessian     .... done
Last element of RFO vector              ....  0.983142389
Lowest eigenvalues of augmented Hessian:
 -0.013052373  0.010402943  0.011085182  0.104526942  0.108865000
Length of the computed step             ....  0.185976700
The final length of the internal step   ....  0.185976700
Converting the step to cartesian space:
 Initial RMS(Int)=    0.0323743879
Transforming coordinates:
 Iter   0:  RMS(Cart)=    0.0538955941 RMS(Int)=    1.0941485098
 Iter   1:  RMS(Cart)=    0.0004719422 RMS(Int)=    0.0004273408
 Iter   2:  RMS(Cart)=    0.0000266059 RMS(Int)=    0.0000231078
 Iter   3:  RMS(Cart)=    0.0000019868 RMS(Int)=    0.0000014263
 Iter   4:  RMS(Cart)=    0.0000001376 RMS(Int)=    0.0000000973
 Iter   5:  RMS(Cart)=    0.0000000093 RMS(Int)=    0.0000000067
done
Storing new coordinates                 .... done

                                .--------------------.
          ----------------------|Geometry convergence|-------------------------
          Item                value                   Tolerance       Converged
          ---------------------------------------------------------------------
          RMS gradient        0.0122722830            0.0001000000      NO
          MAX gradient        0.0566308246            0.0003000000      NO
          RMS step            0.0323743879            0.0020000000      NO
          MAX step            0.1464740170            0.0040000000      NO
          ........................................................
          Max(Bonds)      0.0775      Max(Angles)    2.16
          Max(Dihed)        0.60      Max(Improp)    0.00
          ---------------------------------------------------------------------

The optimization has not yet converged - more geometry cycles are needed


    ---------------------------------------------------------------------------
                         Redundant Internal Coordinates
                            (Angstroem and degrees)

        Definition                    Value    dE/dq     Step     New-Value
    ----------------------------------------------------------------------------
     1. B(C   1,C   0)                1.5400  0.012298 -0.0174    1.5226   
     2. B(O   2,C   1)                1.5000  0.032066 -0.0439    1.4561   
     3. B(H   3,O   2)                1.0500  0.056631 -0.0775    0.9725   
     4. B(H   4,C   1)                1.0900 -0.008113  0.0115    1.1015   
     5. B(H   5,C   1)                1.0900 -0.008083  0.0115    1.1015   
     6. B(H   6,C   0)                1.0900 -0.005445  0.0077    1.0977   
     7. B(H   7,C   0)                1.0900 -0.005402  0.0077    1.0977   
     8. B(H   8,C   0)                1.0900 -0.005464  0.0077    1.0977   
     9. A(C   1,C   0,H   8)          109.47 -0.002751    0.51    109.98   
    10. A(C   1,C   0,H   6)          109.47  0.000955   -0.20    109.27   
    11. A(H   7,C   0,H   8)          109.47  0.002236   -0.30    109.17   
    12. A(H   6,C   0,H   8)          109.47  0.001126   -0.25    109.22   
    13. A(H   6,C   0,H   7)          109.47  0.001051   -0.24    109.24   
    14. A(C   1,C   0,H   7)          109.47 -0.002617    0.48    109.95   
    15. A(H   4,C   1,H   5)          109.47  0.002070    0.05    109.52   
    16. A(O   2,C   1,H   5)          109.47 -0.002634    0.22    109.69   
    17. A(C   0,C   1,H   4)          109.47 -0.003921    0.72    110.19   
    18. A(C   0,C   1,H   5)          109.47 -0.003934    0.71    110.18   
    19. A(O   2,C   1,H   4)          109.47 -0.002699    0.24    109.71   
    20. A(C   0,C   1,O   2)          109.47  0.011118   -1.94    107.53   
    21. A(C   1,O   2,H   3)          109.47  0.012633   -2.16    107.31   
    22. D(H   4,C   1,C   0,H   8)    180.00  0.000858   -0.36    179.64   
    23. D(O   2,C   1,C   0,H   7)    -60.00  0.000303   -0.14    -60.14   
    24. D(H   4,C   1,C   0,H   6)    -60.00  0.001137   -0.48    -60.48   
    25. D(O   2,C   1,C   0,H   6)   -180.00  0.000034   -0.03   -180.03   
    26. D(O   2,C   1,C   0,H   8)     60.00 -0.000245    0.09     60.09   
    27. D(H   5,C   1,C   0,H   6)     60.00 -0.001139    0.45     60.45   
    28. D(H   5,C   1,C   0,H   7)   -180.00 -0.000870    0.34   -179.66   
    29. D(H   5,C   1,C   0,H   8)    -60.00 -0.001418    0.57    -59.43   
    30. D(H   4,C   1,C   0,H   7)     60.00  0.001406   -0.60     59.40   
    31. D(H   3,O   2,C   1,H   5)    -60.00  0.000371   -0.18    -60.18   
    32. D(H   3,O   2,C   1,H   4)     60.00 -0.000360    0.17     60.17   
    33. D(H   3,O   2,C   1,C   0)   -180.00 -0.000006    0.00   -180.00   
    ----------------------------------------------------------------------------

         *************************************************************
         *                GEOMETRY OPTIMIZATION CYCLE   2            *
         *************************************************************
---------------------------------
CARTESIAN COORDINATES (ANGSTROEM)
---------------------------------
  C     -0.028337   -0.009974   -0.015060
  C     -1.386119    0.381967   -0.581627
  O     -2.014854   -0.828608   -1.090999
  H     -2.881424   -0.574661   -1.451974
  H     -2.014533    0.823012    0.208239
  H     -1.260897    1.107952   -1.400458
  H      0.472332    0.884529    0.377608
  H     -0.157010   -0.737934    0.796344
  H      0.592651   -0.454991   -0.803339

----------------------------
CARTESIAN COORDINATES (A.U.)
----------------------------
  NO LB      ZA    FRAG     MASS         X           Y           Z
   0 C     6.0000    0    12.011   -0.053549   -0.018848   -0.028459
   1 C     6.0000    0    12.011   -2.619385    0.721813   -1.099115
   2 O     8.0000    0    15.999   -3.807523   -1.565842   -2.061690
   3 H     1.0000    0     1.008   -5.445103   -1.085953   -2.743833
   4 H     1.0000    0     1.008   -3.806916    1.555268    0.393515
   5 H     1.0000    0     1.008   -2.382750    2.093725   -2.646482
   6 H     1.0000    0     1.008    0.892578    1.671518    0.713575
   7 H     1.0000    0     1.008   -0.296707   -1.394494    1.504873
   8 H     1.0000    0     1.008    1.119949   -0.859809   -1.518091

--------------------------------
INTERNAL COORDINATES (ANGSTROEM)
--------------------------------
 C      0   0   0     0.000000000000     0.00000000     0.00000000
 C      1   0   0     1.522559366006     0.00000000     0.00000000
 O      2   1   0     1.456111316342   107.53078739     0.00000000
 H      3   2   1     0.972489284618   107.30824871   180.00285465
 H      2   1   3     1.101504979989   110.18178792   119.54331348
 H      2   1   3     1.101462328566   110.17681055   240.48832947
 H      1   2   3     1.097721619412   109.27367620   179.96929879
 H      1   2   3     1.097660957785   109.95327311   299.85424306
 H      1   2   3     1.097748274981   109.97541018    60.09021477

---------------------------
INTERNAL COORDINATES (A.U.)
---------------------------
 C      0   0   0     0.000000000000     0.00000000     0.00000000
 C      1   0   0     2.877220224388     0.00000000     0.00000000
 O      2   1   0     2.751651608389   107.53078739     0.00000000
 H      3   2   1     1.837738416100   107.30824871   180.00285465
 H      2   1   3     2.081542747330   110.18178792   119.54331348
 H      2   1   3     2.081462147821   110.17681055   240.48832947
 H      1   2   3     2.074393231973   109.27367620   179.96929879
 H      1   2   3     2.074278598112   109.95327311   299.85424306
 H      1   2   3     2.074443603698   109.97541018    60.09021477

 One Electron integrals                  ... done
 Pre-screening matrix                    ... done

Diagonalization of the overlap matrix:
Smallest eigenvalue                        ... 5.386e-04
Time for diagonalization                   ...    0.003 sec
Threshold for overlap eigenvalues          ... 1.000e-08
Number of eigenvalues below threshold      ... 0
Time for construction of square roots      ...    0.004 sec
Total time needed                          ...    0.008 sec

-------------------
DFT GRID GENERATION
-------------------

General Integration Accuracy     IntAcc      ...  4.340
Radial Grid Type                 RadialGrid  ... Gauss-Chebyshev
Angular Grid (max. acc.)         AngularGrid ... Lebedev-110
Angular grid pruning method      GridPruning ... 3 (G Style)
Weight generation scheme         WeightScheme... Becke
Basis function cutoff            BFCut       ...    1.0000e-11
Integration weight cutoff        WCut        ...    1.0000e-14
Grids for H and He will be reduced by one unit

# of grid points (after initial pruning)     ...   9792 (   0.0 sec)
# of grid points (after weights+screening)   ...   9359 (   0.0 sec)
nearest neighbour list constructed           ...    0.0 sec
Grid point re-assignment to atoms done       ...    0.0 sec
Grid point division into batches done        ...    0.0 sec
Reduced shell lists constructed in    0.1 sec

Total number of grid points                  ...     9359
Total number of batches                      ...      151
Average number of points per batch           ...       61
Average number of grid points per atom       ...     1040
Average number of shells per batch           ...    46.33 (81.28%)
Average number of basis functions per batch  ...   107.42 (83.27%)
Average number of large shells per batch     ...    40.13 (86.62%)
Average number of large basis fcns per batch ...    93.25 (86.81%)
Maximum spatial batch extension              ...  25.00, 20.77, 21.65 au
Average spatial batch extension              ...   4.29,  4.32,  4.20 au

Time for grid setup =    0.142 sec

--------------
SCF ITERATIONS
--------------
ITER       Energy         Delta-E        Max-DP      RMS-DP      [F,P]     Damp
               ***  Starting incremental Fock matrix formation  ***
  0   -154.9044570311   0.000000000000 0.00416421  0.00013882  0.0324931 0.7000
                      *** Initiating the SOSCF procedure ***
                      *** Re-Reading the Fockian *** 
                      *** Removing any level shift *** 
ITER      Energy       Delta-E        Grad      Rot      Max-DP    RMS-DP
  1   -154.90513516  -0.0006781273  0.002237  0.002237  0.008753  0.000381
               *** Restarting incremental Fock matrix formation ***
  2   -154.90644168  -0.0013065204  0.003961  0.005378  0.008932  0.000382
  3   -154.90603425   0.0004074335  0.007922  0.003527  0.006852  0.000267
  4   -154.90658782  -0.0005535769  0.000434  0.000507  0.000639  0.000031
  5   -154.90658725   0.0000005727  0.000367  0.000323  0.000456  0.000016
  6   -154.90659027  -0.0000030221  0.000075  0.000104  0.000187  0.000007
  7   -154.90659031  -0.0000000350  0.000083  0.000056  0.000094  0.000003
  8   -154.90659040  -0.0000000908  0.000003  0.000007  0.000006  0.000000
  9   -154.90659040  -0.0000000021  0.000004  0.000004  0.000005  0.000000
                  ***Gradient check signals convergence***
              ***Rediagonalizing the Fockian in SOSCF/NRSCF***

               *****************************************************
               *                     SUCCESS                       *
               *           SCF CONVERGED AFTER  10 CYCLES          *
               *****************************************************

Setting up the final grid:

General Integration Accuracy     IntAcc      ...  4.670
Radial Grid Type                 RadialGrid  ... Gauss-Chebyshev
Angular Grid (max. acc.)         AngularGrid ... Lebedev-302
Angular grid pruning method      GridPruning ... 3 (G Style)
Weight generation scheme         WeightScheme... Becke
Basis function cutoff            BFCut       ...    1.0000e-11
Integration weight cutoff        WCut        ...    1.0000e-14
Grids for H and He will be reduced by one unit

# of grid points (after initial pruning)     ...  39000 (   0.0 sec)
# of grid points (after weights+screening)   ...  37039 (   0.0 sec)
nearest neighbour list constructed           ...    0.0 sec
Grid point re-assignment to atoms done       ...    0.0 sec
Grid point division into batches done        ...    0.1 sec
Reduced shell lists constructed in    0.6 sec

Total number of grid points                  ...    37039
Total number of batches                      ...      584
Average number of points per batch           ...       63
Average number of grid points per atom       ...     4115
Average number of shells per batch           ...    42.71 (74.94%)
Average number of basis functions per batch  ...    98.81 (76.60%)
Average number of large shells per batch     ...    36.09 (84.48%)
Average number of large basis fcns per batch ...    83.17 (84.17%)
Maximum spatial batch extension              ...  17.61, 17.86, 18.84 au
Average spatial batch extension              ...   2.76,  2.88,  2.77 au

Final grid set up in    0.6 sec
Final integration                            ... done (   0.7 sec)
Change in XC energy                          ...     0.001466446
Integrated number of electrons               ...    25.999986496
Previous integrated no of electrons          ...    26.006940514
Total Energy       :         -154.90512395 Eh           -4215.18272 eV
  Last Energy change         ...    1.0471e-09  Tolerance :   1.0000e-08
  Last MAX-Density change    ...    1.2774e-06  Tolerance :   1.0000e-07
             **** THE GBW FILE WAS UPDATED (opt.gbw) ****
             **** DENSITY FILE WAS UPDATED (opt.scfp.tmp) ****
             **** ENERGY FILE WAS UPDATED (opt.en.tmp) ****
Total SCF time: 0 days 0 hours 0 min 8 sec 

-------------------------   --------------------
FINAL SINGLE POINT ENERGY      -154.905123952943
-------------------------   --------------------

------------------------------------------------------------------------------
                         ORCA SCF GRADIENT CALCULATION
------------------------------------------------------------------------------

Gradient of the Kohn-Sham DFT energy:
Kohn-Sham wavefunction type      ... RKS
Hartree-Fock exchange scaling    ...    0.000
Number of operators              ...    1
Number of atoms                  ...    9
Basis set dimensions             ...  129
Integral neglect threshold       ... 2.5e-11
Integral primitive cutoff        ... 2.5e-12

Nuclear repulsion gradient       ... done
One Electron Gradient            ... done
Pre-screening matrix             ... done
RI-J gradient                    ... done
Exchange-correlation gradient    ... done

------------------
CARTESIAN GRADIENT
------------------

   1   C   :    0.006859644   -0.002334006    0.002809889
   2   C   :    0.000692276    0.014638234    0.002787132
   3   O   :   -0.003720540   -0.007840716   -0.003088929
   4   H   :   -0.000740772    0.000164181   -0.000331411
   5   H   :    0.000916474   -0.002693408   -0.000806586
   6   H   :    0.000343261   -0.002910996    0.000495023
   7   H   :   -0.001999623    0.000116321   -0.000872704
   8   H   :   -0.001131003    0.000425762   -0.000537201
   9   H   :   -0.001219717    0.000434627   -0.000455213

Difference to translation invariance:
           :    0.0000000000    0.0000000000   -0.0000000000

Norm of the cartesian gradient     ...    0.0198609538
RMS gradient                       ...    0.0038222423
MAX gradient                       ...    0.0146382341

-------
TIMINGS
-------

Total SCF gradient time            ...        3.258 sec

One electron gradient       ....       0.057 sec  (  1.7%)
Prescreening matrices       ....       0.164 sec  (  5.0%)
RI-J Coulomb gradient       ....       0.533 sec  ( 16.4%)
XC gradient                 ....       2.345 sec  ( 72.0%)
------------------------------------------------------------------------------
                         ORCA GEOMETRY RELAXATION STEP
------------------------------------------------------------------------------

Reading the OPT-File                    .... done
Getting information on internals        .... done
Copying old internal coords+grads       .... done
Making the new internal coordinates     .... (new redundants).... done
Validating the new internal coordinates .... (new redundants).... done
Calculating the B-matrix                .... done
Calculating the G,G- and P matrices     .... done
Transforming gradient to internals      .... done
Projecting the internal gradient        .... done
Number of atoms                         ....   9
Number of internal coordinates          ....  33
Current Energy                          ....  -154.905123953 Eh
Current gradient norm                   ....     0.019860954 Eh/bohr
Maximum allowed component of the step   ....  0.300
Current trust radius                    ....  0.300
Updating the Hessian (BFGS)             .... done
Forming the augmented Hessian           .... done
Diagonalizing the augmented Hessian     .... done
Last element of RFO vector              ....  0.999098874
Lowest eigenvalues of augmented Hessian:
 -0.000458575  0.010402955  0.011085185  0.104526628  0.109574082
Length of the computed step             ....  0.042481667
The final length of the internal step   ....  0.042481667
Converting the step to cartesian space:
 Initial RMS(Int)=    0.0073951090
Transforming coordinates:
 Iter   0:  RMS(Cart)=    0.0072605471 RMS(Int)=    1.0937369577
 Iter   1:  RMS(Cart)=    0.0000192886 RMS(Int)=    1.0937584991
 Iter   2:  RMS(Cart)=    0.0000001389 RMS(Int)=    0.0000001116
 Iter   3:  RMS(Cart)=    0.0000000016 RMS(Int)=    0.0000000011
done
Storing new coordinates                 .... done

                                .--------------------.
          ----------------------|Geometry convergence|-------------------------
          Item                value                   Tolerance       Converged
          ---------------------------------------------------------------------
          Energy change      -0.0075538587            0.0000050000      NO
          RMS gradient        0.0019992824            0.0001000000      NO
          MAX gradient        0.0095122057            0.0003000000      NO
          RMS step            0.0073951090            0.0020000000      NO
          MAX step            0.0298571625            0.0040000000      NO
          ........................................................
          Max(Bonds)      0.0158      Max(Angles)    0.65
          Max(Dihed)        0.46      Max(Improp)    0.00
          ---------------------------------------------------------------------

The optimization has not yet converged - more geometry cycles are needed


    ---------------------------------------------------------------------------
                         Redundant Internal Coordinates
                            (Angstroem and degrees)

        Definition                    Value    dE/dq     Step     New-Value
    ----------------------------------------------------------------------------
     1. B(C   1,C   0)                1.5226  0.002936 -0.0051    1.5174   
     2. B(O   2,C   1)                1.4561  0.009512 -0.0158    1.4403   
     3. B(H   3,O   2)                0.9725  0.000822 -0.0031    0.9694   
     4. B(H   4,C   1)                1.1015 -0.002184  0.0038    1.1053   
     5. B(H   5,C   1)                1.1015 -0.002244  0.0039    1.1053   
     6. B(H   6,C   0)                1.0977 -0.001126  0.0020    1.0997   
     7. B(H   7,C   0)                1.0977 -0.000547  0.0011    1.0987   
     8. B(H   8,C   0)                1.0977 -0.000543  0.0011    1.0988   
     9. A(C   1,C   0,H   8)          109.98 -0.001128    0.23    110.21   
    10. A(C   1,C   0,H   6)          109.27 -0.002277    0.48    109.75   
    11. A(H   7,C   0,H   8)          109.16  0.001302   -0.33    108.84   
    12. A(H   6,C   0,H   8)          109.22  0.001619   -0.31    108.91   
    13. A(H   6,C   0,H   7)          109.24  0.001577   -0.30    108.94   
    14. A(C   1,C   0,H   7)          109.95 -0.001052    0.22    110.17   
    15. A(H   4,C   1,H   5)          109.51  0.001327   -0.65    108.87   
    16. A(O   2,C   1,H   5)          109.69 -0.000664    0.27    109.96   
    17. A(C   0,C   1,H   4)          110.18 -0.000279    0.04    110.22   
    18. A(C   0,C   1,H   5)          110.18 -0.000301    0.04    110.22   
    19. A(O   2,C   1,H   4)          109.72 -0.000714    0.29    110.00   
    20. A(C   0,C   1,O   2)          107.53  0.000597    0.01    107.54   
    21. A(C   1,O   2,H   3)          107.31  0.000116   -0.07    107.24   
    22. D(H   4,C   1,C   0,H   8)    179.63 -0.000525    0.27    179.91   
    23. D(O   2,C   1,C   0,H   7)    -60.15 -0.000094    0.01    -60.13   
    24. D(H   4,C   1,C   0,H   6)    -60.49 -0.000639    0.33    -60.16   
    25. D(O   2,C   1,C   0,H   6)    179.97  0.000024   -0.05    179.92   
    26. D(O   2,C   1,C   0,H   8)     60.09  0.000139   -0.11     59.98   
    27. D(H   5,C   1,C   0,H   6)     60.46  0.000640   -0.41     60.05   
    28. D(H   5,C   1,C   0,H   7)   -179.66  0.000522   -0.34   -180.00   
    29. D(H   5,C   1,C   0,H   8)    -59.42  0.000755   -0.46    -59.89   
    30. D(H   4,C   1,C   0,H   7)     59.40 -0.000758    0.39     59.79   
    31. D(H   3,O   2,C   1,H   5)    -60.18 -0.000383    0.20    -59.98   
    32. D(H   3,O   2,C   1,H   4)     60.16  0.000392   -0.25     59.92   
    33. D(H   3,O   2,C   1,C   0)   -180.00  0.000003   -0.02   -180.01   
    ----------------------------------------------------------------------------

         *************************************************************
         *                GEOMETRY OPTIMIZATION CYCLE   3            *
         *************************************************************
---------------------------------
CARTESIAN COORDINATES (ANGSTROEM)
---------------------------------
  C     -0.034265   -0.010456   -0.017927
  C     -1.388214    0.376257   -0.583481
  O     -2.007070   -0.822971   -1.086837
  H     -2.871243   -0.570992   -1.446644
  H     -2.018508    0.824155    0.206320
  H     -1.265327    1.109400   -1.401520
  H      0.472403    0.882256    0.376696
  H     -0.157404   -0.739161    0.795098
  H      0.591435   -0.457195   -0.802970

----------------------------
CARTESIAN COORDINATES (A.U.)
----------------------------
  NO LB      ZA    FRAG     MASS         X           Y           Z
   0 C     6.0000    0    12.011   -0.064751   -0.019759   -0.033878
   1 C     6.0000    0    12.011   -2.623344    0.711022   -1.102619
   2 O     8.0000    0    15.999   -3.792812   -1.555190   -2.053825
   3 H     1.0000    0     1.008   -5.425862   -1.079019   -2.733762
   4 H     1.0000    0     1.008   -3.814428    1.557428    0.389887
   5 H     1.0000    0     1.008   -2.391122    2.096461   -2.648489
   6 H     1.0000    0     1.008    0.892713    1.667221    0.711852
   7 H     1.0000    0     1.008   -0.297451   -1.396812    1.502518
   8 H     1.0000    0     1.008    1.117651   -0.863973   -1.517393

--------------------------------
INTERNAL COORDINATES (ANGSTROEM)
--------------------------------
 C      0   0   0     0.000000000000     0.00000000     0.00000000
 C      1   0   0     1.517423954379     0.00000000     0.00000000
 O      2   1   0     1.440311586423   107.54415198     0.00000000
 H      3   2   1     0.969406719200   107.23643298   179.98635996
 H      2   1   3     1.105291306218   110.22865046   119.92595995
 H      2   1   3     1.105344994225   110.22247628   240.13139343
 H      1   2   3     1.099715465299   109.75247702   179.91958949
 H      1   2   3     1.098719898056   110.17054843   299.86743040
 H      1   2   3     1.098803109465   110.20766910    59.98084730

---------------------------
INTERNAL COORDINATES (A.U.)
---------------------------
 C      0   0   0     0.000000000000     0.00000000     0.00000000
 C      1   0   0     2.867515702827     0.00000000     0.00000000
 O      2   1   0     2.721794445853   107.54415198     0.00000000
 H      3   2   1     1.831913211671   107.23643298   179.98635996
 H      2   1   3     2.088697866956   110.22865046   119.92595995
 H      2   1   3     2.088799322586   110.22247628   240.13139343
 H      1   2   3     2.078161054654   109.75247702   179.91958949
 H      1   2   3     2.076279705217   110.17054843   299.86743040
 H      1   2   3     2.076436951991   110.20766910    59.98084730

 One Electron integrals                  ... done
 Pre-screening matrix                    ... done

Diagonalization of the overlap matrix:
Smallest eigenvalue                        ... 5.286e-04
Time for diagonalization                   ...    0.003 sec
Threshold for overlap eigenvalues          ... 1.000e-08
Number of eigenvalues below threshold      ... 0
Time for construction of square roots      ...    0.003 sec
Total time needed                          ...    0.007 sec

-------------------
DFT GRID GENERATION
-------------------

General Integration Accuracy     IntAcc      ...  4.340
Radial Grid Type                 RadialGrid  ... Gauss-Chebyshev
Angular Grid (max. acc.)         AngularGrid ... Lebedev-110
Angular grid pruning method      GridPruning ... 3 (G Style)
Weight generation scheme         WeightScheme... Becke
Basis function cutoff            BFCut       ...    1.0000e-11
Integration weight cutoff        WCut        ...    1.0000e-14
Grids for H and He will be reduced by one unit

# of grid points (after initial pruning)     ...   9792 (   0.0 sec)
# of grid points (after weights+screening)   ...   9354 (   0.0 sec)
nearest neighbour list constructed           ...    0.0 sec
Grid point re-assignment to atoms done       ...    0.0 sec
Grid point division into batches done        ...    0.0 sec
Reduced shell lists constructed in    0.1 sec

Total number of grid points                  ...     9354
Total number of batches                      ...      151
Average number of points per batch           ...       61
Average number of grid points per atom       ...     1039
Average number of shells per batch           ...    46.39 (81.38%)
Average number of basis functions per batch  ...   107.51 (83.34%)
Average number of large shells per batch     ...    40.18 (86.63%)
Average number of large basis fcns per batch ...    93.16 (86.65%)
Maximum spatial batch extension              ...  25.36, 20.77, 21.64 au
Average spatial batch extension              ...   4.21,  4.22,  4.20 au

Time for grid setup =    0.140 sec

--------------
SCF ITERATIONS
--------------
ITER       Energy         Delta-E        Max-DP      RMS-DP      [F,P]     Damp
               ***  Starting incremental Fock matrix formation  ***
                      *** Initiating the SOSCF procedure ***
                      *** Re-Reading the Fockian *** 
                      *** Removing any level shift *** 
ITER      Energy       Delta-E        Grad      Rot      Max-DP    RMS-DP
  0   -154.90677799 -154.9067779921  0.001234  0.001234  0.002229  0.000099
               *** Restarting incremental Fock matrix formation ***
  1   -154.90687377  -0.0000957732  0.001016  0.001560  0.002295  0.000098
  2   -154.90685513   0.0000186370  0.001904  0.000872  0.001779  0.000066
  3   -154.90688687  -0.0000317424  0.000057  0.000185  0.000192  0.000009
  4   -154.90688689  -0.0000000204  0.000067  0.000063  0.000102  0.000003
  5   -154.90688702  -0.0000001300  0.000016  0.000026  0.000054  0.000002
  6   -154.90688703  -0.0000000079  0.000010  0.000008  0.000019  0.000001
                  ***Gradient check signals convergence***
              ***Rediagonalizing the Fockian in SOSCF/NRSCF***

               *****************************************************
               *                     SUCCESS                       *
               *           SCF CONVERGED AFTER   7 CYCLES          *
               *****************************************************

Setting up the final grid:

General Integration Accuracy     IntAcc      ...  4.670
Radial Grid Type                 RadialGrid  ... Gauss-Chebyshev
Angular Grid (max. acc.)         AngularGrid ... Lebedev-302
Angular grid pruning method      GridPruning ... 3 (G Style)
Weight generation scheme         WeightScheme... Becke
Basis function cutoff            BFCut       ...    1.0000e-11
Integration weight cutoff        WCut        ...    1.0000e-14
Grids for H and He will be reduced by one unit

# of grid points (after initial pruning)     ...  39000 (   0.0 sec)
# of grid points (after weights+screening)   ...  37029 (   0.0 sec)
nearest neighbour list constructed           ...    0.0 sec
Grid point re-assignment to atoms done       ...    0.0 sec
Grid point division into batches done        ...    0.1 sec
Reduced shell lists constructed in    0.6 sec

Total number of grid points                  ...    37029
Total number of batches                      ...      584
Average number of points per batch           ...       63
Average number of grid points per atom       ...     4114
Average number of shells per batch           ...    42.70 (74.92%)
Average number of basis functions per batch  ...    98.83 (76.61%)
Average number of large shells per batch     ...    36.13 (84.61%)
Average number of large basis fcns per batch ...    83.29 (84.28%)
Maximum spatial batch extension              ...  17.60, 17.86, 18.85 au
Average spatial batch extension              ...   2.75,  2.87,  2.78 au

Final grid set up in    0.6 sec
Final integration                            ... done (   0.7 sec)
Change in XC energy                          ...     0.001465889
Integrated number of electrons               ...    25.999982905
Previous integrated no of electrons          ...    26.006933831
Total Energy       :         -154.90542114 Eh           -4215.19081 eV
  Last Energy change         ...   -2.1832e-09  Tolerance :   1.0000e-08
  Last MAX-Density change    ...    2.9713e-06  Tolerance :   1.0000e-07
             **** THE GBW FILE WAS UPDATED (opt.gbw) ****
             **** DENSITY FILE WAS UPDATED (opt.scfp.tmp) ****
             **** ENERGY FILE WAS UPDATED (opt.en.tmp) ****
Total SCF time: 0 days 0 hours 0 min 5 sec 

-------------------------   --------------------
FINAL SINGLE POINT ENERGY      -154.905421141889
-------------------------   --------------------

------------------------------------------------------------------------------
                         ORCA SCF GRADIENT CALCULATION
------------------------------------------------------------------------------

Gradient of the Kohn-Sham DFT energy:
Kohn-Sham wavefunction type      ... RKS
Hartree-Fock exchange scaling    ...    0.000
Number of operators              ...    1
Number of atoms                  ...    9
Basis set dimensions             ...  129
Integral neglect threshold       ... 2.5e-11
Integral primitive cutoff        ... 2.5e-12

Nuclear repulsion gradient       ... done
One Electron Gradient            ... done
Pre-screening matrix             ... done
RI-J gradient                    ... done
Exchange-correlation gradient    ... done

------------------
CARTESIAN GRADIENT
------------------

   1   C   :    0.002451778   -0.002280494    0.000736533
   2   C   :    0.000230925    0.006306046    0.001190780
   3   O   :   -0.002105439   -0.001787961   -0.001289483
   4   H   :    0.001977018    0.000300290    0.000968427
   5   H   :   -0.000263914   -0.001852003   -0.000001517
   6   H   :    0.000067374   -0.001724407   -0.000677097
   7   H   :   -0.001017545    0.000772752   -0.000311647
   8   H   :   -0.000739846    0.000091286   -0.000140204
   9   H   :   -0.000600349    0.000174489   -0.000475792

Difference to translation invariance:
           :   -0.0000000000   -0.0000000000   -0.0000000000

Norm of the cartesian gradient     ...    0.0087794844
RMS gradient                       ...    0.0016896126
MAX gradient                       ...    0.0063060465

-------
TIMINGS
-------

Total SCF gradient time            ...        3.272 sec

One electron gradient       ....       0.058 sec  (  1.8%)
Prescreening matrices       ....       0.165 sec  (  5.0%)
RI-J Coulomb gradient       ....       0.536 sec  ( 16.4%)
XC gradient                 ....       2.354 sec  ( 71.9%)
------------------------------------------------------------------------------
                         ORCA GEOMETRY RELAXATION STEP
------------------------------------------------------------------------------

Reading the OPT-File                    .... done
Getting information on internals        .... done
Copying old internal coords+grads       .... done
Making the new internal coordinates     .... (new redundants).... done
Validating the new internal coordinates .... (new redundants).... done
Calculating the B-matrix                .... done
Calculating the G,G- and P matrices     .... done
Transforming gradient to internals      .... done
Projecting the internal gradient        .... done
Number of atoms                         ....   9
Number of internal coordinates          ....  33
Current Energy                          ....  -154.905421142 Eh
Current gradient norm                   ....     0.008779484 Eh/bohr
Maximum allowed component of the step   ....  0.300
Current trust radius                    ....  0.300
Updating the Hessian (BFGS)             .... done
Forming the augmented Hessian           .... done
Diagonalizing the augmented Hessian     .... done
Last element of RFO vector              ....  0.999274781
Lowest eigenvalues of augmented Hessian:
 -0.000147647  0.010401200  0.011084994  0.081717404  0.104528617
Length of the computed step             ....  0.038105337
The final length of the internal step   ....  0.038105337
Converting the step to cartesian space:
 Initial RMS(Int)=    0.0066332877
Transforming coordinates:
 Iter   0:  RMS(Cart)=    0.0042436136 RMS(Int)=    1.0923942543
 Iter   1:  RMS(Cart)=    0.0000333298 RMS(Int)=    0.0000254866
 Iter   2:  RMS(Cart)=    0.0000001791 RMS(Int)=    0.0000002082
 Iter   3:  RMS(Cart)=    0.0000000019 RMS(Int)=    0.0000000017
done
Storing new coordinates                 .... done

                                .--------------------.
          ----------------------|Geometry convergence|-------------------------
[...]
Angular grid pruning method      GridPruning ... 3 (G Style)
Weight generation scheme         WeightScheme... Becke
Basis function cutoff            BFCut       ...    1.0000e-11
Integration weight cutoff        WCut        ...    1.0000e-14
Grids for H and He will be reduced by one unit

# of grid points (after initial pruning)     ...  39000 (   0.0 sec)
# of grid points (after weights+screening)   ...  37034 (   0.0 sec)
nearest neighbour list constructed           ...    0.0 sec
Grid point re-assignment to atoms done       ...    0.0 sec
Grid point division into batches done        ...    0.1 sec
Reduced shell lists constructed in    0.6 sec

Total number of grid points                  ...    37034
Total number of batches                      ...      583
Average number of points per batch           ...       63
Average number of grid points per atom       ...     4115
Average number of shells per batch           ...    42.72 (74.95%)
Average number of basis functions per batch  ...    98.80 (76.59%)
Average number of large shells per batch     ...    36.08 (84.45%)
Average number of large basis fcns per batch ...    83.18 (84.19%)
Maximum spatial batch extension              ...  17.59, 17.86, 18.85 au
Average spatial batch extension              ...   2.75,  2.86,  2.76 au

Final grid set up in    0.6 sec
Final integration                            ... done (   0.7 sec)
Change in XC energy                          ...     0.001475585
Integrated number of electrons               ...    25.999976128
Previous integrated no of electrons          ...    26.007021882

----------------
TOTAL SCF ENERGY
----------------

Total Energy       :         -154.90553646 Eh           -4215.19394 eV

Components:
Nuclear Repulsion  :           81.39006923 Eh            2214.73638 eV
Electronic Energy  :         -236.29560569 Eh           -6429.93032 eV
One Electron Energy:         -371.05567658 Eh          -10096.93828 eV
Two Electron Energy:          134.76007089 Eh            3667.00796 eV

Virial components:
Potential Energy   :         -309.10000882 Eh           -8411.03885 eV
Kinetic Energy     :          154.19447235 Eh            4195.84491 eV
Virial Ratio       :            2.00461148


DFT components:
N(Alpha)           :       12.999988064233 electrons
N(Beta)            :       12.999988064233 electrons
N(Total)           :       25.999976128466 electrons
E(X)               :      -20.631075599460 Eh       
E(C)               :       -0.841346919079 Eh       
E(XC)              :      -21.472422518539 Eh       

---------------
SCF CONVERGENCE
---------------

  Last Energy change         ...   -9.6964e-10  Tolerance :   1.0000e-08
  Last MAX-Density change    ...    2.0498e-06  Tolerance :   1.0000e-07
  Last RMS-Density change    ...    1.1511e-07  Tolerance :   5.0000e-09
  Last Orbital Gradient      ...    1.3817e-06  Tolerance :   1.0000e-05
  Last Orbital Rotation      ...    2.1931e-06  Tolerance :   1.0000e-05

             **** THE GBW FILE WAS UPDATED (opt.gbw) ****
             **** DENSITY FILE WAS UPDATED (opt.scfp.tmp) ****
             **** ENERGY FILE WAS UPDATED (opt.en.tmp) ****
----------------
ORBITAL ENERGIES
----------------

  NO   OCC          E(Eh)            E(eV) 
   0   2.0000     -18.745585      -510.0933 
   1   2.0000      -9.926949      -270.1260 
   2   2.0000      -9.871434      -268.6154 
   3   2.0000      -0.927598       -25.2412 
   4   2.0000      -0.677881       -18.4461 
   5   2.0000      -0.546725       -14.8772 
   6   2.0000      -0.463991       -12.6258 
   7   2.0000      -0.412538       -11.2257 
   8   2.0000      -0.356180        -9.6921 
   9   2.0000      -0.337750        -9.1907 
  10   2.0000      -0.318169        -8.6578 
  11   2.0000      -0.288881        -7.8608 
  12   2.0000      -0.224372        -6.1055 
  13   0.0000       0.007952         0.2164 
  14   0.0000       0.038289         1.0419 
  15   0.0000       0.071754         1.9525 
  16   0.0000       0.078908         2.1472 
  17   0.0000       0.093792         2.5522 
  18   0.0000       0.115699         3.1483 
  19   0.0000       0.120965         3.2916 
  20   0.0000       0.147399         4.0109 
  21   0.0000       0.183715         4.9991 
  22   0.0000       0.212863         5.7923 
  23   0.0000       0.243676         6.6307 
  24   0.0000       0.268277         7.3002 
  25   0.0000       0.278116         7.5679 
  26   0.0000       0.330461         8.9923 
  27   0.0000       0.368109        10.0168 
  28   0.0000       0.380891        10.3646 
  29   0.0000       0.394109        10.7242 
  30   0.0000       0.405694        11.0395 
  31   0.0000       0.427898        11.6437 
  32   0.0000       0.445542        12.1238 
  33   0.0000       0.446954        12.1622 
  34   0.0000       0.477035        12.9808 
  35   0.0000       0.512203        13.9377 
  36   0.0000       0.519418        14.1341 
  37   0.0000       0.590321        16.0635 
  38   0.0000       0.640004        17.4154 
  39   0.0000       0.733489        19.9592 
  40   0.0000       0.774400        21.0725 
  41   0.0000       0.784340        21.3430 
  42   0.0000       0.812041        22.0968 
  43   0.0000       0.876908        23.8619 
  44   0.0000       0.932216        25.3669 
  45   0.0000       1.004433        27.3320 
  46   0.0000       1.011380        27.5211 
  47   0.0000       1.049085        28.5471 
  48   0.0000       1.081272        29.4229 
  49   0.0000       1.267700        34.4959 
  50   0.0000       1.390132        37.8274 
  51   0.0000       1.414846        38.4999 
  52   0.0000       1.433254        39.0008 
  53   0.0000       1.467530        39.9335 
  54   0.0000       1.468670        39.9645 
  55   0.0000       1.491480        40.5852 
  56   0.0000       1.507380        41.0179 
  57   0.0000       1.525527        41.5117 
  58   0.0000       1.549966        42.1767 
  59   0.0000       1.667417        45.3727 
  60   0.0000       1.682600        45.7859 
  61   0.0000       1.729603        47.0649 
  62   0.0000       1.735050        47.2131 
  63   0.0000       1.802656        49.0528 
  64   0.0000       1.835949        49.9587 
  65   0.0000       1.897302        51.6282 
  66   0.0000       1.980170        53.8832 
  67   0.0000       2.031060        55.2679 
  68   0.0000       2.053993        55.8920 
  69   0.0000       2.128761        57.9265 
  70   0.0000       2.160503        58.7903 
  71   0.0000       2.210297        60.1453 
  72   0.0000       2.246446        61.1289 
  73   0.0000       2.269023        61.7433 
  74   0.0000       2.283631        62.1407 
  75   0.0000       2.353637        64.0457 
  76   0.0000       2.375956        64.6531 
  77   0.0000       2.426922        66.0399 
  78   0.0000       2.459842        66.9357 
  79   0.0000       2.481258        67.5185 
  80   0.0000       2.506746        68.2120 
  81   0.0000       2.559369        69.6440 
  82   0.0000       2.587701        70.4149 
  83   0.0000       2.661326        72.4184 
  84   0.0000       2.697978        73.4157 
  85   0.0000       2.734808        74.4179 
  86   0.0000       2.756809        75.0166 
  87   0.0000       2.867470        78.0278 
  88   0.0000       2.947738        80.2120 
  89   0.0000       2.958090        80.4937 
  90   0.0000       3.007328        81.8335 
  91   0.0000       3.033885        82.5562 
  92   0.0000       3.058654        83.2302 
  93   0.0000       3.138414        85.4006 
  94   0.0000       3.164776        86.1179 
  95   0.0000       3.208937        87.3196 
  96   0.0000       3.254572        88.5614 
  97   0.0000       3.269222        88.9601 
  98   0.0000       3.402837        92.5959 
  99   0.0000       3.419940        93.0613 
 100   0.0000       3.477091        94.6165 
 101   0.0000       3.657202        99.5175 
 102   0.0000       3.674300        99.9828 
 103   0.0000       3.765258       102.4579 
 104   0.0000       3.789973       103.1304 
 105   0.0000       3.824426       104.0679 
 106   0.0000       3.924371       106.7876 
 107   0.0000       4.112910       111.9180 
 108   0.0000       4.144976       112.7905 
 109   0.0000       4.254641       115.7747 
 110   0.0000       4.308306       117.2350 
 111   0.0000       4.428771       120.5130 
 112   0.0000       4.521055       123.0242 
 113   0.0000       4.635212       126.1305 
 114   0.0000       5.143718       139.9677 
 115   0.0000       5.243601       142.6856 
 116   0.0000       5.333752       145.1388 
 117   0.0000       5.587016       152.0304 
 118   0.0000       5.621473       152.9680 
 119   0.0000       5.749347       156.4477 
 120   0.0000       6.101640       166.0341 
 121   0.0000       6.310937       171.7293 
 122   0.0000       6.539846       177.9582 
 123   0.0000       6.578971       179.0229 
 124   0.0000       6.829948       185.8523 
 125   0.0000       6.997160       190.4024 
 126   0.0000      21.992829       598.4553 
 127   0.0000      22.086722       601.0102 
 128   0.0000      43.318756      1178.7633 

                    ********************************
                    * MULLIKEN POPULATION ANALYSIS *
                    ********************************

-----------------------
MULLIKEN ATOMIC CHARGES
-----------------------
   0 C :   -0.324186
   1 C :   -0.081671
   2 O :   -0.421116
   3 H :    0.293181
   4 H :    0.090125
   5 H :    0.095641
   6 H :    0.106797
   7 H :    0.121758
   8 H :    0.119471
Sum of atomic charges:   -0.0000000

--------------------------------
MULLIKEN REDUCED ORBITAL CHARGES
--------------------------------
  0 C s       :     3.227341  s :     3.227341
      pz      :     1.051917  p :     3.045628
      px      :     0.961509
      py      :     1.032202
      dz2     :     0.005701  d :     0.047902
      dxz     :     0.013366
      dyz     :     0.010878
      dx2y2   :     0.007325
      dxy     :     0.010632
      f0      :     0.000019  f :     0.003316
      f+1     :     0.000658
      f-1     :     0.000297
      f+2     :     0.000738
      f-2     :     0.000732
      f+3     :     0.000535
      f-3     :     0.000337
  1 C s       :     3.252313  s :     3.252313
      pz      :     0.971281  p :     2.692739
      px      :     0.923124
      py      :     0.798333
      dz2     :     0.016063  d :     0.127291
      dxz     :     0.022166
      dyz     :     0.028433
      dx2y2   :     0.032332
      dxy     :     0.028297
      f0      :     0.000380  f :     0.009328
      f+1     :     0.000980
      f-1     :     0.001637
      f+2     :     0.001470
      f-2     :     0.001453
      f+3     :     0.001392
      f-3     :     0.002017
  2 O s       :     3.798432  s :     3.798432
      pz      :     1.749624  p :     4.593003
      px      :     1.364906
      py      :     1.478473
      dz2     :     0.003293  d :     0.028184
      dxz     :     0.003357
      dyz     :     0.005581
      dx2y2   :     0.009374
      dxy     :     0.006579
      f0      :     0.000310  f :     0.001497
      f+1     :     0.000152
      f-1     :     0.000149
      f+2     :     0.000279
      f-2     :     0.000251
      f+3     :     0.000165
      f-3     :     0.000191
  3 H s       :     0.659994  s :     0.659994
      pz      :     0.017183  p :     0.046824
      px      :     0.018238
      py      :     0.011404
  4 H s       :     0.890664  s :     0.890664
      pz      :     0.007900  p :     0.019211
      px      :     0.006407
      py      :     0.004905
  5 H s       :     0.885069  s :     0.885069
      pz      :     0.007936  p :     0.019289
      px      :     0.004168
      py      :     0.007186
  6 H s       :     0.872573  s :     0.872573
      pz      :     0.005511  p :     0.020629
      px      :     0.006390
      py      :     0.008728
  7 H s       :     0.857351  s :     0.857351
      pz      :     0.008521  p :     0.020891
      px      :     0.004383
      py      :     0.007987
  8 H s       :     0.860141  s :     0.860141
      pz      :     0.007622  p :     0.020387
      px      :     0.006981
      py      :     0.005785


                     *******************************
                     * LOEWDIN POPULATION ANALYSIS *
                     *******************************

----------------------
LOEWDIN ATOMIC CHARGES
----------------------
   0 C :   -0.326657
   1 C :   -0.394045
   2 O :   -0.048982
   3 H :    0.169489
   4 H :    0.112608
   5 H :    0.113088
   6 H :    0.125205
   7 H :    0.124580
   8 H :    0.124713

-------------------------------
LOEWDIN REDUCED ORBITAL CHARGES
-------------------------------
  0 C s       :     2.846934  s :     2.846934
      pz      :     1.077327  p :     3.206798
      px      :     1.059359
      py      :     1.070112
      dz2     :     0.026136  d :     0.248421
      dxz     :     0.063066
      dyz     :     0.058592
      dx2y2   :     0.043234
      dxy     :     0.057394
      f0      :     0.002385  f :     0.024503
      f+1     :     0.005616
      f-1     :     0.002031
      f+2     :     0.003253
      f-2     :     0.002886
      f+3     :     0.004763
      f-3     :     0.003569
  1 C s       :     2.822675  s :     2.822675
      pz      :     1.028765  p :     2.957224
      px      :     1.025406
      py      :     0.903053
      dz2     :     0.060607  d :     0.546150
      dxz     :     0.090884
      dyz     :     0.152765
      dx2y2   :     0.123854
      dxy     :     0.118040
      f0      :     0.005286  f :     0.067996
      f+1     :     0.009087
      f-1     :     0.010641
      f+2     :     0.007765
      f-2     :     0.008284
      f+3     :     0.012553
      f-3     :     0.014379
  2 O s       :     3.383017  s :     3.383017
      pz      :     1.685987  p :     4.594199
      px      :     1.373841
      py      :     1.534371
      dz2     :     0.007150  d :     0.067435
      dxz     :     0.010187
      dyz     :     0.012402
      dx2y2   :     0.023292
      dxy     :     0.014404
      f0      :     0.000597  f :     0.004331
      f+1     :     0.000177
      f-1     :     0.000493
      f+2     :     0.000617
      f-2     :     0.000665
      f+3     :     0.000680
      f-3     :     0.001102
  3 H s       :     0.676885  s :     0.676885
      pz      :     0.047145  p :     0.153626
      px      :     0.069328
      py      :     0.037154
  4 H s       :     0.829894  s :     0.829894
      pz      :     0.025330  p :     0.057498
      px      :     0.018106
      py      :     0.014062
  5 H s       :     0.829470  s :     0.829470
      pz      :     0.023790  p :     0.057442
      px      :     0.012783
      py      :     0.020869
  6 H s       :     0.814372  s :     0.814372
      pz      :     0.016115  p :     0.060423
      px      :     0.017183
      py      :     0.027124
  7 H s       :     0.814563  s :     0.814563
      pz      :     0.024834  p :     0.060857
      px      :     0.013009
      py      :     0.023014
  8 H s       :     0.814419  s :     0.814419
      pz      :     0.024490  p :     0.060867
      px      :     0.019472
      py      :     0.016905


                      *****************************
                      * MAYER POPULATION ANALYSIS *
                      *****************************

  NA   - Mulliken gross atomic population
  ZA   - Total nuclear charge
  QA   - Mulliken gross atomic charge
  VA   - Mayer's total valence
  BVA  - Mayer's bonded valence
  FA   - Mayer's free valence

  ATOM       NA         ZA         QA         VA         BVA        FA
  0 C      6.3242     6.0000    -0.3242     3.8548     3.8548    -0.0000
  1 C      6.0817     6.0000    -0.0817     4.0248     4.0248     0.0000
  2 O      8.4211     8.0000    -0.4211     1.9723     1.9723    -0.0000
  3 H      0.7068     1.0000     0.2932     0.9267     0.9267    -0.0000
  4 H      0.9099     1.0000     0.0901     0.9439     0.9439     0.0000
  5 H      0.9044     1.0000     0.0956     0.9409     0.9409     0.0000
  6 H      0.8932     1.0000     0.1068     0.9746     0.9746     0.0000
  7 H      0.8782     1.0000     0.1218     0.9766     0.9766    -0.0000
  8 H      0.8805     1.0000     0.1195     0.9805     0.9805     0.0000

  Mayer bond orders larger than 0.1
B(  0-C ,  1-C ) :   1.0191 B(  0-C ,  6-H ) :   0.9526 B(  0-C ,  7-H ) :   0.9637 
B(  0-C ,  8-H ) :   0.9616 B(  1-C ,  2-O ) :   1.0782 B(  1-C ,  4-H ) :   0.9474 
B(  1-C ,  5-H ) :   0.9478 B(  2-O ,  3-H ) :   0.9014 

-------
TIMINGS
-------

Total SCF time: 0 days 0 hours 0 min 4 sec 

Total time                  ....       4.320 sec
Sum of individual times     ....       4.234 sec  ( 98.0%)

Fock matrix formation       ....       3.385 sec  ( 78.4%)
  Split-RI-J                ....       1.538 sec  ( 45.4% of F)
  XC integration            ....       1.782 sec  ( 52.6% of F)
    Basis function eval.    ....       0.767 sec  ( 43.0% of XC)
    Density eval.           ....       0.254 sec  ( 14.2% of XC)
    XC-Functional eval.     ....       0.111 sec  (  6.3% of XC)
    XC-Potential eval.      ....       0.540 sec  ( 30.3% of XC)
Diagonalization             ....       0.005 sec  (  0.1%)
Density matrix formation    ....       0.001 sec  (  0.0%)
Population analysis         ....       0.013 sec  (  0.3%)
Initial guess               ....       0.003 sec  (  0.1%)
Orbital Transformation      ....       0.000 sec  (  0.0%)
Orbital Orthonormalization  ....       0.002 sec  (  0.0%)
DIIS solution               ....       0.001 sec  (  0.0%)
SOSCF solution              ....       0.042 sec  (  1.0%)
Grid generation             ....       0.785 sec  ( 18.2%)

-------------------------   --------------------
FINAL SINGLE POINT ENERGY      -154.905536464263
-------------------------   --------------------

                                *** OPTIMIZATION RUN DONE ***

                            ***************************************
                            *     ORCA property calculations      *
                            ***************************************

                                    ---------------------
                                    Active property flags
                                    ---------------------
   (+) Dipole Moment


------------------------------------------------------------------------------
                       ORCA ELECTRIC PROPERTIES CALCULATION
------------------------------------------------------------------------------

Dipole Moment Calculation                       ... on
Quadrupole Moment Calculation                   ... off
Polarizability Calculation                      ... off
GBWName                                         ... opt.gbw
Electron density file                           ... opt.scfp.tmp
The origin for moment calculation is the CENTER OF MASS  = (-2.238978, -0.318215 -1.106343)

-------------
DIPOLE MOMENT
-------------
                                X             Y             Z
Electronic contribution:     -2.00161      -1.38476      -1.18597
Nuclear contribution   :      1.74064       1.92569       1.16080
                        -----------------------------------------
Total Dipole Moment    :     -0.26097       0.54093      -0.02516
                        -----------------------------------------
Magnitude (a.u.)       :      0.60112
Magnitude (Debye)      :      1.52792


Timings for individual modules:

Sum of individual times         ...       62.833 sec (=   1.047 min)
GTO integral calculation        ...        1.443 sec (=   0.024 min)   2.3 %
SCF iterations                  ...       42.209 sec (=   0.703 min)  67.2 %
SCF Gradient evaluation         ...       17.778 sec (=   0.296 min)  28.3 %
Geometry relaxation             ...        1.404 sec (=   0.023 min)   2.2 %
                             ****ORCA TERMINATED NORMALLY****
TOTAL RUN TIME: 0 days 0 hours 1 minutes 3 seconds 803 msec
