
                                 *****************
                                 * O   R   C   A *
                                 *****************

           --- An Ab Initio, DFT and Semiempirical electronic structure package ---

                  #######################################################
                  #                        -***-                        #
                  #  Department of molecular theory and spectroscopy    #
                  #              Directorship: Frank Neese              #
                  # Max Planck Institute for Chemical Energy Conversion #
                  #                  D-45470 Muelheim/Ruhr              #
                  #                       Germany                       #
                  #                                                     #
                  #                  All rights reserved                #
                  #                        -***-                        #
                  #######################################################


                         Program Version 4.0.1.2 - RELEASE -


 With contributions from (in alphabetic order):
   Daniel Aravena         : Magnetic Properties
   Michael Atanasov       : Ab Initio Ligand Field Theory
   Ute Becker             : Parallelization
   Martin Brehm           : Molecular dynamics
   Dmytro Bykov           : SCF Hessian
   Vijay G. Chilkuri      : MRCI spin determinant printing
   Dipayan Datta          : RHF DLPNO-CCSD density
   Achintya Kumar Dutta   : EOM-CC, STEOM-CC
   Dmitry Ganyushin       : Spin-Orbit,Spin-Spin,Magnetic field MRCI
   Yang Guo               : DLPNO-NEVPT2, CIM, IAO-localization
   Andreas Hansen         : Spin unrestricted coupled pair/coupled cluster methods
   Lee Huntington         : MR-EOM, pCC
   Robert Izsak           : Overlap fitted RIJCOSX, COSX-SCS-MP3, EOM
   Christian Kollmar      : KDIIS, OOCD, Brueckner-CCSD(T), CCSD density
   Simone Kossmann        : Meta GGA functionals, TD-DFT gradient, OOMP2, MP2 Hessian
   Martin Krupicka        : AUTO-CI
   Dagmar Lenk            : GEPOL surface
   Dimitrios Liakos       : Extrapolation schemes; parallel MDCI
   Dimitrios Manganas     : ROCIS; embedding schemes
   Dimitrios Pantazis     : SARC Basis sets
   Taras Petrenko         : DFT Hessian,TD-DFT gradient, ASA, ECA, R-Raman, ABS, FL, XAS/XES, NRVS
   Peter Pinski           : DLPNO-MP2
   Christoph Reimann      : Effective Core Potentials
   Marius Retegan         : Local ZFS, SOC
   Christoph Riplinger    : Optimizer, TS searches, QM/MM, DLPNO-CCSD(T), (RO)-DLPNO pert. Triples
   Tobias Risthaus        : Range-separated hybrids, TD-DFT gradient, RPA, STAB
   Michael Roemelt        : Restricted open shell CIS
   Masaaki Saitow         : Open-shell DLPNO
   Barbara Sandhoefer     : DKH picture change effects
   Kantharuban Sivalingam : CASSCF convergence, NEVPT2, FIC-MRCI
   Georgi Stoychev        : AutoAux
   Boris Wezisla          : Elementary symmetry handling
   Frank Wennmohs         : Technical directorship


 We gratefully acknowledge several colleagues who have allowed us to
 interface, adapt or use parts of their codes:
   Stefan Grimme, W. Hujo, H. Kruse,             : VdW corrections, initial TS optimization,
                  C. Bannwarth                     DFT functionals, gCP, sTDA/sTD-DF
   Ed Valeev                                     : LibInt (2-el integral package), F12 methods
   Garnet Chan, S. Sharma, J. Yang, R. Olivares  : DMRG
   Ulf Ekstrom                                   : XCFun DFT Library
   Mihaly Kallay                                 : mrcc  (arbitrary order and MRCC methods)
   Andreas Klamt, Michael Diedenhofen            : otool_cosmo (COSMO solvation model)
   Jiri Pittner, Ondrej Demel                    : Mk-CCSD
   Frank Weinhold                                : gennbo (NPA and NBO analysis)
   Christopher J. Cramer and Donald G. Truhlar   : smd solvation model


 Your calculation uses the libint2 library for the computation of 2-el integrals
 For citations please refer to: http://libint.valeyev.net

 This ORCA versions uses:
   CBLAS   interface :  Fast vector & matrix operations
   LAPACKE interface :  Fast linear algebra routines
   SCALAPACK package :  Parallel linear algebra routines




*****************************************
The coordinations will be read from file: C6H6.xyz
*****************************************


Your calculation utilizes the basis: def2-TZVP
   F. Weigend and R. Ahlrichs, Phys. Chem. Chem. Phys. 7, 3297 (2005).

Your calculation utilizes the auxiliary basis: def2/J
   F. Weigend, Phys. Chem. Chem. Phys. 8, 1057 (2006).

================================================================================
                                        WARNINGS
                       Please study these warnings very carefully!
================================================================================

Warning: TCutStore was < 0. Adjusted to Thresh (uncritical)

INFO   : the flag for use of LIBINT has been found!

================================================================================
                                       INPUT FILE
================================================================================
NAME = freq.inp
|  1> # avogadro generated ORCA input file 
|  2> # Basic Mode
|  3> # 
|  4> ! PBE FREQ def2-TZVP
|  5> 
|  6> * xyzfile 0 1 C6H6.xyz
|  7> 
|  8> 
|  9>                          ****END OF INPUT****
================================================================================

                       ****************************
                       * Single Point Calculation *
                       ****************************

---------------------------------
CARTESIAN COORDINATES (ANGSTROEM)
---------------------------------
  C     -2.831900    2.847290   -0.000000
  C     -4.340190    1.769940   -0.000000
  C     -0.523290    2.093140    0.000000
  C     -2.400960   -1.369780    0.000000
  H     -2.361160   -2.439040    0.000000
  H     -5.306030    2.230430    0.000000
  H     -5.089250   -1.105480   -0.000000
  H     -2.994180    3.904910   -0.000000
  C     -4.201670   -0.507890   -0.000000
  C     -0.415550   -0.230860   -0.000000
  H      0.328080    2.741280    0.000000
  H      0.522520   -0.745560   -0.000000

----------------------------
CARTESIAN COORDINATES (A.U.)
----------------------------
  NO LB      ZA    FRAG     MASS         X           Y           Z
   0 C     6.0000    0    12.011   -5.351515    5.380598   -0.000000
   1 C     6.0000    0    12.011   -8.201770    3.344702   -0.000000
   2 C     6.0000    0    12.011   -0.988875    3.955461    0.000000
   3 C     6.0000    0    12.011   -4.537157   -2.588509    0.000000
   4 H     1.0000    0     1.008   -4.461946   -4.609118    0.000000
   5 H     1.0000    0     1.008  -10.026944    4.214902    0.000000
   6 H     1.0000    0     1.008   -9.617289   -2.089054   -0.000000
   7 H     1.0000    0     1.008   -5.658180    7.379210   -0.000000
   8 C     6.0000    0    12.011   -7.940006   -0.959773   -0.000000
   9 C     6.0000    0    12.011   -0.785276   -0.436262   -0.000000
  10 H     1.0000    0     1.008    0.619981    5.180268    0.000000
  11 H     1.0000    0     1.008    0.987420   -1.408904   -0.000000

--------------------------------
INTERNAL COORDINATES (ANGSTROEM)
--------------------------------
 C      0   0   0     0.000000000000     0.00000000     0.00000000
 C      1   0   0     1.853543025290     0.00000000     0.00000000
 C      1   2   0     2.428666785420   126.37174164     0.00000000
 C      2   1   3     3.690319047359    93.83636468     0.00000000
 H      4   2   1     1.070000461495   150.43036652   180.00000000
 H      2   1   3     1.069999040046   118.97160414   180.00000000
 H      4   2   1     2.701251120148    52.68368090   180.00000000
 H      1   2   3     1.069997599437   116.81431395   180.00000000
 C      7   4   2     1.070005637602    39.56660607     0.00000000
 C      4   2   1     2.288884364598    91.86080207     0.00000000
 H      3   1   2     1.070007633851   124.62774123   180.00000085
 H     10   4   2     1.069995988264   121.40680479   180.00000000

---------------------------
INTERNAL COORDINATES (A.U.)
---------------------------
 C      0   0   0     0.000000000000     0.00000000     0.00000000
 C      1   0   0     3.502688695237     0.00000000     0.00000000
 C      1   2   0     4.589515094994   126.37174164     0.00000000
 C      2   1   3     6.973692346302    93.83636468     0.00000000
 H      4   2   1     2.022007835395   150.43036652   180.00000000
 H      2   1   3     2.022005149246   118.97160414   180.00000000
 H      4   2   1     5.104624836027    52.68368090   180.00000000
 H      1   2   3     2.022002426888   116.81431395   180.00000000
 C      7   4   2     2.022017616820    39.56660607     0.00000000
 C      4   2   1     4.325364601304    91.86080207     0.00000000
 H      3   1   2     2.022021389184   124.62774123   180.00000085
 H     10   4   2     2.021999382212   121.40680479   180.00000000

---------------------
BASIS SET INFORMATION
---------------------
There are 2 groups of distinct atoms

 Group   1 Type C   : 11s6p2d1f contracted to 5s3p2d1f pattern {62111/411/11/1}
 Group   2 Type H   : 5s1p contracted to 3s1p pattern {311/1}

Atom   0C    basis set group =>   1
Atom   1C    basis set group =>   1
Atom   2C    basis set group =>   1
Atom   3C    basis set group =>   1
Atom   4H    basis set group =>   2
Atom   5H    basis set group =>   2
Atom   6H    basis set group =>   2
Atom   7H    basis set group =>   2
Atom   8C    basis set group =>   1
Atom   9C    basis set group =>   1
Atom  10H    basis set group =>   2
Atom  11H    basis set group =>   2
-------------------------------
AUXILIARY BASIS SET INFORMATION
-------------------------------
There are 2 groups of distinct atoms

 Group   1 Type C   : 12s5p4d2f1g contracted to 6s4p3d1f1g pattern {711111/2111/211/2/1}
 Group   2 Type H   : 5s2p1d contracted to 3s1p1d pattern {311/2/1}

Atom   0C    basis set group =>   1
Atom   1C    basis set group =>   1
Atom   2C    basis set group =>   1
Atom   3C    basis set group =>   1
Atom   4H    basis set group =>   2
Atom   5H    basis set group =>   2
Atom   6H    basis set group =>   2
Atom   7H    basis set group =>   2
Atom   8C    basis set group =>   1
Atom   9C    basis set group =>   1
Atom  10H    basis set group =>   2
Atom  11H    basis set group =>   2
------------------------------------------------------------------------------
                           ORCA GTO INTEGRAL CALCULATION
                           -- RI-GTO INTEGRALS CHOSEN --
------------------------------------------------------------------------------

                         BASIS SET STATISTICS AND STARTUP INFO

Gaussian basis set:
 # of primitive gaussian shells          ...  156
 # of primitive gaussian functions       ...  324
 # of contracted shells                  ...   90
 # of contracted basis functions         ...  222
 Highest angular momentum                ...    3
 Maximum contraction depth               ...    6
Auxiliary gaussian basis set:
 # of primitive gaussian shells          ...  192
 # of primitive gaussian functions       ...  516
 # of contracted shells                  ...  120
 # of contracted aux-basis functions     ...  360
 Highest angular momentum                ...    4
 Maximum contraction depth               ...    7
Ratio of auxiliary to basis functions    ...  1.62
Integral package used                  ... LIBINT
 One Electron integrals                  ... done
 Ordering auxiliary basis shells         ... done
 Integral threshhold             Thresh  ...  1.000e-10
 Primitive cut-off               TCut    ...  1.000e-11
 Pre-screening matrix                    ... done
 Shell pair data                         ... 
 Ordering of the shell pairs             ... done (   0.001 sec) 3637 of 4095 pairs
 Determination of significant pairs      ... done (   0.000 sec)
 Creation of shell pair data             ... done (   0.001 sec)
 Storage of shell pair data              ... done (   0.007 sec)
 Shell pair data done in (   0.009 sec)
 Computing two index integrals           ... done
 Cholesky decomposition of the V-matrix  ... done


Timings:
 Total evaluation time                   ...   0.277 sec (  0.005 min)
 One electron matrix time                ...   0.028 sec (  0.000 min) = 10.2%
 Schwartz matrix evaluation time         ...   0.197 sec (  0.003 min) = 70.9%
 Two index repulsion integral time       ...   0.011 sec (  0.000 min) =  3.9%
 Cholesky decomposition of V             ...   0.008 sec (  0.000 min) =  3.0%
 Three index repulsion integral time     ...   0.000 sec (  0.000 min) =  0.0%

-------------------------------------------------------------------------------
                                 ORCA SCF
-------------------------------------------------------------------------------

------------
SCF SETTINGS
------------
Hamiltonian:
 Density Functional     Method          .... DFT(GTOs)
 Exchange Functional    Exchange        .... PBE
   PBE kappa parameter   XKappa         ....  0.804000
   PBE mue parameter    XMuePBE         ....  0.219520
 Correlation Functional Correlation     .... PBE
   PBE beta parameter  CBetaPBE         ....  0.066725
 LDA part of GGA corr.  LDAOpt          .... PW91-LDA
 Gradients option       PostSCFGGA      .... off
   NL short-range parameter             ....  6.400000
 RI-approximation to the Coulomb term is turned on
   Number of auxiliary basis functions  .... 360


General Settings:
 Integral files         IntName         .... freq
 Hartree-Fock type      HFTyp           .... RHF
 Total Charge           Charge          ....    0
 Multiplicity           Mult            ....    1
 Number of Electrons    NEL             ....   42
 Basis Dimension        Dim             ....  222
 Nuclear Repulsion      ENuc            ....    140.0679924605 Eh

Convergence Acceleration:
 DIIS                   CNVDIIS         .... on
   Start iteration      DIISMaxIt       ....    12
   Startup error        DIISStart       ....  0.200000
   # of expansion vecs  DIISMaxEq       ....     5
   Bias factor          DIISBfac        ....   1.050
   Max. coefficient     DIISMaxC        ....  10.000
 Newton-Raphson         CNVNR           .... off
 SOSCF                  CNVSOSCF        .... on
   Start iteration      SOSCFMaxIt      ....   150
   Startup grad/error   SOSCFStart      ....  0.003300
 Level Shifting         CNVShift        .... on
   Level shift para.    LevelShift      ....    0.2500
   Turn off err/grad.   ShiftErr        ....    0.0010
 Zerner damping         CNVZerner       .... off
 Static damping         CNVDamp         .... on
   Fraction old density DampFac         ....    0.7000
   Max. Damping (<1)    DampMax         ....    0.9800
   Min. Damping (>=0)   DampMin         ....    0.0000
   Turn off err/grad.   DampErr         ....    0.1000
 Fernandez-Rico         CNVRico         .... off

SCF Procedure:
 Maximum # iterations   MaxIter         ....   125
 SCF integral mode      SCFMode         .... Direct
   Integral package                     .... LIBINT
 Reset frequeny         DirectResetFreq ....    20
 Integral Threshold     Thresh          ....  1.000e-10 Eh
 Primitive CutOff       TCut            ....  1.000e-11 Eh

Convergence Tolerance:
 Convergence Check Mode ConvCheckMode   .... Total+1el-Energy
 Convergence forced     ConvForced      .... 0
 Energy Change          TolE            ....  1.000e-06 Eh
 1-El. energy change                    ....  1.000e-03 Eh
 Orbital Gradient       TolG            ....  5.000e-05
 Orbital Rotation angle TolX            ....  5.000e-05
 DIIS Error             TolErr          ....  1.000e-06


Diagonalization of the overlap matrix:
Smallest eigenvalue                        ... 9.308e-04
Time for diagonalization                   ...   36.770 sec
Threshold for overlap eigenvalues          ... 1.000e-08
Number of eigenvalues below threshold      ... 0
Time for construction of square roots      ...    0.007 sec
Total time needed                          ...   36.777 sec

-------------------
DFT GRID GENERATION
-------------------

General Integration Accuracy     IntAcc      ...  4.340
Radial Grid Type                 RadialGrid  ... Gauss-Chebyshev
Angular Grid (max. acc.)         AngularGrid ... Lebedev-110
Angular grid pruning method      GridPruning ... 3 (G Style)
Weight generation scheme         WeightScheme... Becke
Basis function cutoff            BFCut       ...    1.0000e-10
Integration weight cutoff        WCut        ...    1.0000e-14
Grids for H and He will be reduced by one unit

# of grid points (after initial pruning)     ...  14700 (   0.0 sec)
# of grid points (after weights+screening)   ...  14070 (   0.0 sec)
nearest neighbour list constructed           ...    0.0 sec
Grid point re-assignment to atoms done       ...    0.0 sec
Grid point division into batches done        ...    0.0 sec
Reduced shell lists constructed in    0.3 sec

Total number of grid points                  ...    14070
Total number of batches                      ...      225
Average number of points per batch           ...       62
Average number of grid points per atom       ...     1172
Average number of shells per batch           ...    55.65 (61.83%)
Average number of basis functions per batch  ...   140.46 (63.27%)
Average number of large shells per batch     ...    41.65 (74.85%)
Average number of large basis fcns per batch ...   103.27 (73.52%)
Maximum spatial batch extension              ...  20.40, 17.83, 25.60 au
Average spatial batch extension              ...   4.23,  4.04,  5.60 au

Time for grid setup =    0.283 sec

------------------------------
INITIAL GUESS: MODEL POTENTIAL
------------------------------
Loading Hartree-Fock densities                     ... done
Calculating cut-offs                               ... done
Setting up the integral package                    ... done
Initializing the effective Hamiltonian             ... done
Starting the Coulomb interaction                   ... done (   0.2 sec)
Reading the grid                                   ... done
Mapping shells                                     ... done
Starting the XC term evaluation                    ... done (   0.3 sec)
  promolecular density results
     # of electrons  =     41.996531115
     EX              =    -31.713990682
     EC              =     -1.211439871
     EX+EC           =    -32.925430554
Transforming the Hamiltonian                       ... done (   0.0 sec)
Diagonalizing the Hamiltonian                      ... done (   0.0 sec)
Back transforming the eigenvectors                 ... done (   0.0 sec)
Now organizing SCF variables                       ... done
                      ------------------
                      INITIAL GUESS DONE (   1.0 sec)
                      ------------------
--------------
SCF ITERATIONS
--------------
ITER       Energy         Delta-E        Max-DP      RMS-DP      [F,P]     Damp
               ***  Starting incremental Fock matrix formation  ***
  0   -231.0393132168   0.000000000000 0.00864652  0.00031503  0.0464162 0.7000
  1   -231.0459591708  -0.006645954067 0.00764250  0.00027932  0.0236330 0.7000
                               ***Turning on DIIS***
  2   -231.0481504901  -0.002191319271 0.01864156  0.00064112  0.0148283 0.0000
  3   -231.0527254536  -0.004574963535 0.00750236  0.00023124  0.0135925 0.0000
  4   -231.0531458012  -0.000420347583 0.00513648  0.00008390  0.0128532 0.0000
  5   -231.0537038541  -0.000558052842 0.00153621  0.00003905  0.0044186 0.0000
  6   -231.0538196121  -0.000115758078 0.00110746  0.00002097  0.0045782 0.0000
                      *** Initiating the SOSCF procedure ***
                           *** Shutting down DIIS ***
                      *** Re-Reading the Fockian *** 
                      *** Removing any level shift *** 
ITER      Energy       Delta-E        Grad      Rot      Max-DP    RMS-DP
  7   -231.05386837  -0.0000487567  0.000208  0.000208  0.000361  0.000009
               *** Restarting incremental Fock matrix formation ***
  8   -231.05387479  -0.0000064170  0.000323  0.005496  0.002942  0.000051
  9   -231.05377071   0.0001040762  0.002696  0.004605  0.003069  0.000045
 10   -231.05386641  -0.0000956964  0.001162  0.014845  0.008404  0.000130
 11   -231.05295744   0.0009089623  0.009312  0.014313  0.007872  0.000120
 12   -231.05387060  -0.0009131557  0.000726  0.007508  0.006305  0.000086
 13   -231.05351563   0.0003549725  0.004897  0.006292  0.005916  0.000076
 14   -231.05386997  -0.0003543446  0.000644  0.007793  0.004704  0.000082
 15   -231.05356450   0.0003054716  0.004899  0.006428  0.004009  0.000071
 16   -231.05387673  -0.0003122314  0.000137  0.002004  0.001213  0.000018
 17   -231.05386269   0.0000140416  0.000974  0.001774  0.001047  0.000015
 18   -231.05387702  -0.0000143259  0.000028  0.000072  0.000073  0.000003
 19   -231.05387699   0.0000000303  0.000038  0.000041  0.000041  0.000002
                 **** Energy Check signals convergence ****
              ***Rediagonalizing the Fockian in SOSCF/NRSCF***

               *****************************************************
               *                     SUCCESS                       *
               *           SCF CONVERGED AFTER  20 CYCLES          *
               *****************************************************

Setting up the final grid:

General Integration Accuracy     IntAcc      ...  4.670
Radial Grid Type                 RadialGrid  ... Gauss-Chebyshev
Angular Grid (max. acc.)         AngularGrid ... Lebedev-302
Angular grid pruning method      GridPruning ... 3 (G Style)
Weight generation scheme         WeightScheme... Becke
Basis function cutoff            BFCut       ...    1.0000e-10
Integration weight cutoff        WCut        ...    1.0000e-14
Grids for H and He will be reduced by one unit

# of grid points (after initial pruning)     ...  57636 (   0.0 sec)
# of grid points (after weights+screening)   ...  54787 (   0.1 sec)
nearest neighbour list constructed           ...    0.0 sec
Grid point re-assignment to atoms done       ...    0.0 sec
Grid point division into batches done        ...    0.2 sec
Reduced shell lists constructed in    1.1 sec

Total number of grid points                  ...    54787
Total number of batches                      ...      862
Average number of points per batch           ...       63
Average number of grid points per atom       ...     4566
Average number of shells per batch           ...    49.73 (55.26%)
Average number of basis functions per batch  ...   124.14 (55.92%)
Average number of large shells per batch     ...    36.56 (73.52%)
Average number of large basis fcns per batch ...    89.56 (72.14%)
Maximum spatial batch extension              ...  18.47, 18.57, 24.37 au
Average spatial batch extension              ...   2.78,  2.71,  3.10 au

Final grid set up in    1.3 sec
Final integration                            ... done (   1.2 sec)
Change in XC energy                          ...    -0.000723707
Integrated number of electrons               ...    41.999945677
Previous integrated no of electrons          ...    41.999185289

----------------
TOTAL SCF ENERGY
----------------

Total Energy       :         -231.05460077 Eh           -6287.31533 eV

Components:
Nuclear Repulsion  :          140.06799246 Eh            3811.44384 eV
Electronic Energy  :         -371.12259323 Eh          -10098.75917 eV
One Electron Energy:         -586.60779462 Eh          -15962.40960 eV
Two Electron Energy:          215.48520140 Eh            5863.65043 eV

Virial components:
Potential Energy   :         -458.78100007 Eh          -12484.06569 eV
Kinetic Energy     :          227.72639930 Eh            6196.75036 eV
Virial Ratio       :            2.01461491


DFT components:
N(Alpha)           :       20.999972838285 electrons
N(Beta)            :       20.999972838285 electrons
N(Total)           :       41.999945676571 electrons
E(X)               :      -31.943404076916 Eh       
E(C)               :       -1.231744030518 Eh       
E(XC)              :      -33.175148107434 Eh       

---------------
SCF CONVERGENCE
---------------

  Last Energy change         ...   -7.3004e-08  Tolerance :   1.0000e-06
  Last MAX-Density change    ...    1.1979e-06  Tolerance :   1.0000e-05
  Last RMS-Density change    ...    4.0097e-08  Tolerance :   1.0000e-06
  Last Orbital Gradient      ...    5.6006e-07  Tolerance :   5.0000e-05
  Last Orbital Rotation      ...    2.9717e-06  Tolerance :   5.0000e-05

             **** THE GBW FILE WAS UPDATED (freq.gbw) ****
             **** DENSITY FILE WAS UPDATED (freq.scfp.tmp) ****
             **** ENERGY FILE WAS UPDATED (freq.en.tmp) ****
----------------
ORBITAL ENERGIES
----------------

  NO   OCC          E(Eh)            E(eV) 
   0   2.0000     -10.001744      -272.1613 
   1   2.0000     -10.001600      -272.1574 
   2   2.0000      -9.998682      -272.0780 
   3   2.0000      -9.997692      -272.0510 
   4   2.0000      -9.994018      -271.9511 
   5   2.0000      -9.993946      -271.9491 
   6   2.0000      -0.620346       -16.8805 
   7   2.0000      -0.603727       -16.4282 
   8   2.0000      -0.587990       -16.0000 
   9   2.0000      -0.563340       -15.3293 
  10   2.0000      -0.548497       -14.9254 
  11   2.0000      -0.531645       -14.4668 
  12   2.0000      -0.369483       -10.0541 
  13   2.0000      -0.345940        -9.4135 
  14   2.0000      -0.326507        -8.8847 
  15   2.0000      -0.290236        -7.8977 
  16   2.0000      -0.280566        -7.6346 
  17   2.0000      -0.260336        -7.0841 
  18   2.0000      -0.218976        -5.9586 
  19   2.0000      -0.198156        -5.3921 
  20   2.0000      -0.184875        -5.0307 
  21   0.0000      -0.159749        -4.3470 
  22   0.0000      -0.146324        -3.9817 
  23   0.0000      -0.133452        -3.6314 
  24   0.0000      -0.128565        -3.4984 
  25   0.0000      -0.122267        -3.3270 
  26   0.0000      -0.102758        -2.7962 
  27   0.0000      -0.077338        -2.1045 
  28   0.0000      -0.012174        -0.3313 
  29   0.0000       0.040810         1.1105 
  30   0.0000       0.047660         1.2969 
  31   0.0000       0.062434         1.6989 
  32   0.0000       0.068522         1.8646 
  33   0.0000       0.084831         2.3084 
  34   0.0000       0.095577         2.6008 
  35   0.0000       0.106545         2.8992 
  36   0.0000       0.166453         4.5294 
  37   0.0000       0.184971         5.0333 
  38   0.0000       0.197426         5.3722 
  39   0.0000       0.202537         5.5113 
  40   0.0000       0.204777         5.5723 
  41   0.0000       0.212021         5.7694 
  42   0.0000       0.224125         6.0988 
  43   0.0000       0.228020         6.2048 
  44   0.0000       0.233819         6.3625 
  45   0.0000       0.234250         6.3743 
  46   0.0000       0.266339         7.2475 
  47   0.0000       0.267402         7.2764 
  48   0.0000       0.293669         7.9912 
  49   0.0000       0.297969         8.1082 
  50   0.0000       0.311687         8.4814 
  51   0.0000       0.326776         8.8920 
  52   0.0000       0.332527         9.0485 
  53   0.0000       0.371891        10.1197 
  54   0.0000       0.384702        10.4683 
  55   0.0000       0.403772        10.9872 
  56   0.0000       0.406677        11.0662 
  57   0.0000       0.412068        11.2130 
  58   0.0000       0.425012        11.5652 
  59   0.0000       0.436095        11.8668 
  60   0.0000       0.442362        12.0373 
  61   0.0000       0.492153        13.3922 
  62   0.0000       0.495139        13.4734 
  63   0.0000       0.496213        13.5026 
  64   0.0000       0.515862        14.0373 
  65   0.0000       0.550325        14.9751 
  66   0.0000       0.551246        15.0002 
  67   0.0000       0.566652        15.4194 
  68   0.0000       0.571274        15.5452 
  69   0.0000       0.579984        15.7822 
  70   0.0000       0.580887        15.8067 
  71   0.0000       0.617716        16.8089 
  72   0.0000       0.676467        18.4076 
  73   0.0000       0.700417        19.0593 
  74   0.0000       0.747120        20.3302 
  75   0.0000       0.753379        20.5005 
  76   0.0000       0.781050        21.2534 
  77   0.0000       0.784807        21.3557 
  78   0.0000       0.802482        21.8367 
  79   0.0000       0.803548        21.8657 
  80   0.0000       0.816457        22.2169 
  81   0.0000       0.817658        22.2496 
  82   0.0000       0.841492        22.8981 
  83   0.0000       0.852221        23.1901 
  84   0.0000       0.866621        23.5819 
  85   0.0000       0.917827        24.9753 
  86   0.0000       0.961365        26.1601 
  87   0.0000       0.981347        26.7038 
  88   0.0000       0.999585        27.2001 
  89   0.0000       1.008801        27.4509 
  90   0.0000       1.027521        27.9603 
  91   0.0000       1.045542        28.4506 
  92   0.0000       1.069117        29.0922 
  93   0.0000       1.096875        29.8475 
  94   0.0000       1.134433        30.8695 
  95   0.0000       1.196914        32.5697 
  96   0.0000       1.248993        33.9868 
  97   0.0000       1.251930        34.0667 
  98   0.0000       1.258604        34.2484 
  99   0.0000       1.270320        34.5672 
 100   0.0000       1.273604        34.6565 
 101   0.0000       1.315863        35.8065 
 102   0.0000       1.324489        36.0412 
 103   0.0000       1.325135        36.0588 
 104   0.0000       1.331959        36.2444 
 105   0.0000       1.393092        37.9080 
 106   0.0000       1.419670        38.6312 
 107   0.0000       1.421976        38.6939 
 108   0.0000       1.451270        39.4911 
 109   0.0000       1.479131        40.2492 
 110   0.0000       1.507637        41.0249 
 111   0.0000       1.514038        41.1991 
 112   0.0000       1.527488        41.5651 
 113   0.0000       1.570303        42.7301 
 114   0.0000       1.639772        44.6205 
 115   0.0000       1.670292        45.4510 
 116   0.0000       1.677773        45.6545 
 117   0.0000       1.693224        46.0750 
 118   0.0000       1.709087        46.5066 
 119   0.0000       1.721213        46.8366 
 120   0.0000       1.760502        47.9057 
 121   0.0000       1.768632        48.1269 
 122   0.0000       1.780241        48.4428 
 123   0.0000       1.809651        49.2431 
 124   0.0000       1.824217        49.6395 
 125   0.0000       1.852735        50.4155 
 126   0.0000       1.866481        50.7895 
 127   0.0000       1.868057        50.8324 
 128   0.0000       1.915448        52.1220 
 129   0.0000       1.926357        52.4188 
 130   0.0000       2.005975        54.5854 
 131   0.0000       2.066311        56.2272 
 132   0.0000       2.098007        57.0897 
 133   0.0000       2.110631        57.4332 
 134   0.0000       2.169559        59.0367 
 135   0.0000       2.258338        61.4525 
 136   0.0000       2.275191        61.9111 
 137   0.0000       2.359598        64.2079 
 138   0.0000       2.381042        64.7914 
 139   0.0000       2.390694        65.0541 
 140   0.0000       2.396291        65.2064 
 141   0.0000       2.405357        65.4531 
 142   0.0000       2.432935        66.2035 
 143   0.0000       2.453336        66.7587 
 144   0.0000       2.461910        66.9920 
 145   0.0000       2.475811        67.3702 
 146   0.0000       2.479697        67.4760 
 147   0.0000       2.481466        67.5241 
 148   0.0000       2.543916        69.2235 
 149   0.0000       2.544609        69.2423 
 150   0.0000       2.559938        69.6595 
 151   0.0000       2.585859        70.3648 
 152   0.0000       2.598918        70.7201 
 153   0.0000       2.621628        71.3381 
 154   0.0000       2.660647        72.3999 
 155   0.0000       2.677314        72.8534 
 156   0.0000       2.708549        73.7034 
 157   0.0000       2.717765        73.9541 
 158   0.0000       2.731627        74.3314 
 159   0.0000       2.779806        75.6424 
 160   0.0000       2.802682        76.2649 
 161   0.0000       2.826094        76.9019 
 162   0.0000       2.829121        76.9843 
 163   0.0000       2.847744        77.4911 
 164   0.0000       2.854581        77.6771 
 165   0.0000       2.869332        78.0785 
 166   0.0000       2.879465        78.3542 
 167   0.0000       2.889074        78.6157 
 168   0.0000       2.900568        78.9285 
 169   0.0000       2.926886        79.6446 
 170   0.0000       2.939413        79.9855 
 171   0.0000       2.944537        80.1249 
 172   0.0000       2.958515        80.5053 
 173   0.0000       2.984771        81.2197 
 174   0.0000       3.005504        81.7839 
 175   0.0000       3.025535        82.3290 
 176   0.0000       3.026789        82.3631 
 177   0.0000       3.052156        83.0534 
 178   0.0000       3.057563        83.2005 
 179   0.0000       3.075414        83.6863 
 180   0.0000       3.084211        83.9256 
 181   0.0000       3.094472        84.2049 
 182   0.0000       3.098157        84.3051 
 183   0.0000       3.106962        84.5447 
 184   0.0000       3.119103        84.8751 
 185   0.0000       3.137873        85.3859 
 186   0.0000       3.150608        85.7324 
 187   0.0000       3.152548        85.7852 
 188   0.0000       3.169739        86.2530 
 189   0.0000       3.172275        86.3220 
 190   0.0000       3.182049        86.5879 
 191   0.0000       3.194536        86.9277 
 192   0.0000       3.223103        87.7051 
 193   0.0000       3.276613        89.1612 
 194   0.0000       3.283670        89.3532 
 195   0.0000       3.334004        90.7229 
 196   0.0000       3.352995        91.2396 
 197   0.0000       3.353300        91.2479 
 198   0.0000       3.437328        93.5345 
 199   0.0000       3.481919        94.7478 
 200   0.0000       3.483391        94.7879 
 201   0.0000       3.520864        95.8076 
 202   0.0000       3.533646        96.1554 
 203   0.0000       3.563735        96.9742 
 204   0.0000       3.585076        97.5549 
 205   0.0000       3.602957        98.0414 
 206   0.0000       3.639614        99.0389 
 207   0.0000       3.698633       100.6449 
 208   0.0000       3.920342       106.6779 
 209   0.0000       4.048570       110.1672 
 210   0.0000       4.089120       111.2706 
 211   0.0000       4.129391       112.3665 
 212   0.0000       4.153021       113.0095 
 213   0.0000       4.187995       113.9611 
 214   0.0000       4.292449       116.8035 
 215   0.0000       4.391473       119.4981 
 216   0.0000      21.173551       576.1616 
 217   0.0000      21.323683       580.2469 
 218   0.0000      21.360676       581.2535 
 219   0.0000      21.505591       585.1969 
 220   0.0000      21.515338       585.4621 
 221   0.0000      21.652934       589.2063 

                    ********************************
                    * MULLIKEN POPULATION ANALYSIS *
                    ********************************

-----------------------
MULLIKEN ATOMIC CHARGES
-----------------------
   0 C :   -0.175589
   1 C :   -0.174258
   2 C :   -0.213785
   3 C :   -0.193538
   4 H :    0.194648
   5 H :    0.178183
   6 H :    0.185317
   7 H :    0.188918
   8 C :   -0.182546
   9 C :   -0.189953
  10 H :    0.195048
  11 H :    0.187555
Sum of atomic charges:   -0.0000000

--------------------------------
MULLIKEN REDUCED ORBITAL CHARGES
--------------------------------
  0 C s       :     3.491272  s :     3.491272
      pz      :     0.981885  p :     2.653831
      px      :     0.765504
      py      :     0.906443
      dz2     :     0.002927  d :     0.028481
      dxz     :     0.005902
      dyz     :    -0.000980
      dx2y2   :     0.013433
      dxy     :     0.007199
      f0      :     0.000330  f :     0.002004
      f+1     :     0.000306
      f-1     :     0.000481
      f+2     :     0.000001
      f-2     :     0.000151
      f+3     :     0.000247
      f-3     :     0.000488
  1 C s       :     3.462824  s :     3.462824
      pz      :     0.996335  p :     2.680327
      px      :     0.884306
      py      :     0.799686
      dz2     :     0.002765  d :     0.029016
      dxz     :    -0.000046
      dyz     :     0.004998
      dx2y2   :     0.010638
      dxy     :     0.010661
      f0      :     0.000353  f :     0.002091
      f+1     :     0.000499
      f-1     :     0.000317
      f+2     :     0.000062
      f-2     :     0.000102
      f+3     :     0.000213
      f-3     :     0.000545
  2 C s       :     3.593474  s :     3.593474
      pz      :     0.996732  p :     2.601986
      px      :     0.836856
      py      :     0.768398
      dz2     :     0.002215  d :     0.017245
      dxz     :     0.000838
      dyz     :     0.000141
      dx2y2   :     0.003949
      dxy     :     0.010103
      f0      :     0.000127  f :     0.001080
      f+1     :     0.000277
      f-1     :     0.000225
      f+2     :     0.000029
      f-2     :     0.000008
      f+3     :     0.000113
      f-3     :     0.000300
  3 C s       :     3.507588  s :     3.507588
      pz      :     0.989585  p :     2.657954
      px      :     0.753982
      py      :     0.914386
      dz2     :     0.002781  d :     0.026332
      dxz     :     0.004523
      dyz     :    -0.000903
      dx2y2   :     0.013705
      dxy     :     0.006226
      f0      :     0.000258  f :     0.001665
      f+1     :     0.000286
      f-1     :     0.000446
      f+2     :     0.000010
      f-2     :     0.000087
      f+3     :     0.000101
      f-3     :     0.000476
  4 H s       :     0.780909  s :     0.780909
      pz      :     0.006277  p :     0.024443
      px      :     0.003978
      py      :     0.014187
  5 H s       :     0.797066  s :     0.797066
      pz      :     0.006190  p :     0.024751
      px      :     0.012378
      py      :     0.006183
  6 H s       :     0.789982  s :     0.789982
      pz      :     0.006311  p :     0.024701
      px      :     0.010930
      py      :     0.007459
  7 H s       :     0.786718  s :     0.786718
      pz      :     0.006133  p :     0.024364
      px      :     0.004406
      py      :     0.013825
  8 C s       :     3.498268  s :     3.498268
      pz      :     0.989820  p :     2.657775
      px      :     0.859275
      py      :     0.808680
      dz2     :     0.002594  d :     0.024851
      dxz     :     0.000176
      dyz     :     0.003225
      dx2y2   :     0.007406
      dxy     :     0.011450
      f0      :     0.000255  f :     0.001652
      f+1     :     0.000422
      f-1     :     0.000276
      f+2     :     0.000083
      f-2     :     0.000021
      f+3     :     0.000163
      f-3     :     0.000433
  9 C s       :     3.572250  s :     3.572250
      pz      :     0.986095  p :     2.597256
      px      :     0.865805
      py      :     0.745356
      dz2     :     0.002285  d :     0.019325
      dxz     :     0.000561
      dyz     :     0.000920
      dx2y2   :     0.005743
      dxy     :     0.009816
      f0      :     0.000147  f :     0.001121
      f+1     :     0.000335
      f-1     :     0.000202
      f+2     :     0.000021
      f-2     :     0.000020
      f+3     :     0.000063
      f-3     :     0.000334
 10 H s       :     0.779889  s :     0.779889
      pz      :     0.006715  p :     0.025063
      px      :     0.010577
      py      :     0.007770
 11 H s       :     0.787571  s :     0.787571
      pz      :     0.006501  p :     0.024874
      px      :     0.012069
      py      :     0.006304


                     *******************************
                     * LOEWDIN POPULATION ANALYSIS *
                     *******************************

----------------------
LOEWDIN ATOMIC CHARGES
----------------------
   0 C :   -0.097410
   1 C :   -0.105221
   2 C :   -0.103577
   3 C :   -0.101591
   4 H :    0.102096
   5 H :    0.106708
   6 H :    0.102151
   7 H :    0.105124
   8 C :   -0.100745
   9 C :   -0.098397
  10 H :    0.095402
  11 H :    0.095461

-------------------------------
LOEWDIN REDUCED ORBITAL CHARGES
-------------------------------
  0 C s       :     3.169702  s :     3.169702
      pz      :     0.963011  p :     2.817925
      px      :     0.839415
      py      :     1.015499
      dz2     :     0.008328  d :     0.102393
      dxz     :     0.011271
      dyz     :     0.001995
      dx2y2   :     0.045402
      dxy     :     0.035397
      f0      :     0.000306  f :     0.007391
      f+1     :     0.000951
      f-1     :     0.002302
      f+2     :     0.000142
      f-2     :     0.000513
      f+3     :     0.001129
      f-3     :     0.002049
  1 C s       :     3.146585  s :     3.146585
      pz      :     0.974926  p :     2.841953
      px      :     1.000929
      py      :     0.866098
      dz2     :     0.008372  d :     0.109169
      dxz     :     0.005109
      dyz     :     0.009079
      dx2y2   :     0.039400
      dxy     :     0.047209
      f0      :     0.000318  f :     0.007514
      f+1     :     0.002493
      f-1     :     0.000946
      f+2     :     0.000131
      f-2     :     0.000559
      f+3     :     0.000943
      f-3     :     0.002124
  2 C s       :     3.306118  s :     3.306118
      pz      :     0.981264  p :     2.735794
      px      :     0.915754
      py      :     0.838776
      dz2     :     0.005010  d :     0.057545
      dxz     :     0.001645
      dyz     :     0.002184
      dx2y2   :     0.019851
      dxy     :     0.028855
      f0      :     0.000053  f :     0.004119
      f+1     :     0.001193
      f-1     :     0.000885
      f+2     :     0.000104
      f-2     :     0.000036
      f+3     :     0.000318
      f-3     :     0.001531
  3 C s       :     3.197239  s :     3.197239
      pz      :     0.971044  p :     2.806111
      px      :     0.823760
      py      :     1.011307
      dz2     :     0.007234  d :     0.092337
      dxz     :     0.010039
      dyz     :     0.000709
      dx2y2   :     0.045401
      dxy     :     0.028954
      f0      :     0.000185  f :     0.005904
      f+1     :     0.000893
      f-1     :     0.002011
      f+2     :     0.000203
      f-2     :     0.000238
      f+3     :     0.000500
      f-3     :     0.001875
  4 H s       :     0.820431  s :     0.820431
      pz      :     0.017551  p :     0.077473
      px      :     0.011256
      py      :     0.048666
  5 H s       :     0.816532  s :     0.816532
      pz      :     0.017400  p :     0.076759
      px      :     0.040058
      py      :     0.019301
  6 H s       :     0.820046  s :     0.820046
      pz      :     0.017766  p :     0.077803
      px      :     0.036277
      py      :     0.023760
  7 H s       :     0.818098  s :     0.818098
      pz      :     0.017225  p :     0.076779
      px      :     0.012984
      py      :     0.046570
  8 C s       :     3.193648  s :     3.193648
      pz      :     0.971068  p :     2.811063
      px      :     0.964355
      py      :     0.875640
      dz2     :     0.006886  d :     0.090204
      dxz     :     0.004498
      dyz     :     0.005742
      dx2y2   :     0.031458
      dxy     :     0.041620
      f0      :     0.000188  f :     0.005831
      f+1     :     0.001992
      f-1     :     0.000920
      f+2     :     0.000188
      f-2     :     0.000242
      f+3     :     0.000564
      f-3     :     0.001739
  9 C s       :     3.282156  s :     3.282156
      pz      :     0.970418  p :     2.746059
      px      :     0.961120
      py      :     0.814521
      dz2     :     0.005477  d :     0.065831
      dxz     :     0.001956
      dyz     :     0.003354
      dx2y2   :     0.023772
      dxy     :     0.031272
      f0      :     0.000072  f :     0.004352
      f+1     :     0.001530
      f-1     :     0.000700
      f+2     :     0.000109
      f-2     :     0.000081
      f+3     :     0.000168
      f-3     :     0.001691
 10 H s       :     0.824960  s :     0.824960
      pz      :     0.018821  p :     0.079638
      px      :     0.036029
      py      :     0.024788
 11 H s       :     0.825590  s :     0.825590
      pz      :     0.018258  p :     0.078949
      px      :     0.040984
      py      :     0.019707


                      *****************************
                      * MAYER POPULATION ANALYSIS *
                      *****************************

  NA   - Mulliken gross atomic population
  ZA   - Total nuclear charge
  QA   - Mulliken gross atomic charge
  VA   - Mayer's total valence
  BVA  - Mayer's bonded valence
  FA   - Mayer's free valence

  ATOM       NA         ZA         QA         VA         BVA        FA
  0 C      6.1756     6.0000    -0.1756     3.6936     3.6936    -0.0000
  1 C      6.1743     6.0000    -0.1743     3.7362     3.7362    -0.0000
  2 C      6.2138     6.0000    -0.2138     3.5508     3.5508     0.0000
  3 C      6.1935     6.0000    -0.1935     3.6840     3.6840     0.0000
  4 H      0.8054     1.0000     0.1946     0.9172     0.9172     0.0000
  5 H      0.8218     1.0000     0.1782     0.9312     0.9312    -0.0000
  6 H      0.8147     1.0000     0.1853     0.9251     0.9251     0.0000
  7 H      0.8111     1.0000     0.1889     0.9202     0.9202    -0.0000
  8 C      6.1825     6.0000    -0.1825     3.6953     3.6953     0.0000
  9 C      6.1900     6.0000    -0.1900     3.5806     3.5806    -0.0000
 10 H      0.8050     1.0000     0.1950     0.9149     0.9149    -0.0000
 11 H      0.8124     1.0000     0.1876     0.9162     0.9162    -0.0000

  Mayer bond orders larger than 0.1
B(  0-C ,  1-C ) :   1.6645 B(  0-C ,  2-C ) :   0.9365 B(  0-C ,  7-H ) :   0.8571 
B(  1-C ,  5-H ) :   0.8684 B(  1-C ,  8-C ) :   0.9883 B(  2-C ,  8-C ) :   0.1263 
B(  2-C ,  9-C ) :   1.4735 B(  2-C , 10-H ) :   0.8324 B(  3-C ,  4-H ) :   0.8530 
B(  3-C ,  8-C ) :   1.5768 B(  3-C ,  9-C ) :   1.0157 B(  6-H ,  8-C ) :   0.8581 
B(  9-C , 11-H ) :   0.8381 

-------
TIMINGS
-------

Total SCF time: 0 days 0 hours 0 min 58 sec 

Total time                  ....      58.042 sec
Sum of individual times     ....      20.945 sec  ( 36.1%)

Fock matrix formation       ....      18.281 sec  ( 31.5%)
  Split-RI-J                ....       9.727 sec  ( 53.2% of F)
  XC integration            ....       8.262 sec  ( 45.2% of F)
    Basis function eval.    ....       3.349 sec  ( 40.5% of XC)
    Density eval.           ....       1.548 sec  ( 18.7% of XC)
    XC-Functional eval.     ....       0.412 sec  (  5.0% of XC)
    XC-Potential eval.      ....       2.561 sec  ( 31.0% of XC)
Diagonalization             ....       0.132 sec  (  0.2%)
Density matrix formation    ....       0.011 sec  (  0.0%)
Population analysis         ....       0.029 sec  (  0.0%)
Initial guess               ....       0.730 sec  (  1.3%)
Orbital Transformation      ....       0.000 sec  (  0.0%)
Orbital Orthonormalization  ....       0.000 sec  (  0.0%)
DIIS solution               ....       0.077 sec  (  0.1%)
SOSCF solution              ....       0.131 sec  (  0.2%)
Grid generation             ....       1.553 sec  (  2.7%)

-------------------------   --------------------
FINAL SINGLE POINT ENERGY      -231.054600765898
-------------------------   --------------------


                            ***************************************
                            *     ORCA property calculations      *
                            ***************************************

                                    ---------------------
                                    Active property flags
                                    ---------------------
   (+) Dipole Moment


------------------------------------------------------------------------------
                       ORCA ELECTRIC PROPERTIES CALCULATION
------------------------------------------------------------------------------

Dipole Moment Calculation                       ... on
Quadrupole Moment Calculation                   ... off
Polarizability Calculation                      ... off
GBWName                                         ... freq.gbw
Electron density file                           ... freq.scfp.tmp
The origin for moment calculation is the CENTER OF MASS  = (-4.638647,  1.448996  0.000000)

-------------
DIPOLE MOMENT
-------------
                                X             Y             Z
Electronic contribution:      0.08911       0.00347       0.00000
Nuclear contribution   :     -0.16139      -0.01324       0.00000
                        -----------------------------------------
Total Dipole Moment    :     -0.07228      -0.00977       0.00000
                        -----------------------------------------
Magnitude (a.u.)       :      0.07294
Magnitude (Debye)      :      0.18540


-------------------------------------------------------------------------------
                               ORCA SCF HESSIAN
-------------------------------------------------------------------------------

Hessian of the Kohn-Sham DFT energy:
Kohn-Sham wavefunction type                      ... RKS
Hartree-Fock exchange scaling                    ...    0.000
Number of operators                              ...    1
Number of atoms                                  ...   12
Basis set dimensions                             ...  222
Integral neglect threshold                       ... 1.0e-10
Integral primitive cutoff                        ... 1.0e-11

Setting up DFT Hessian calculations              ... 
Electron density on the grid                     ... found on disk
Electron density on the final grid               ... found on disk
Building xc-kernel on the grid                   ... done   (      0.0 sec)
Building xc-kernel on the final grid             ... done   (      0.1 sec)
                                                     done   (      0.3 sec)

Nuclear repulsion Hessian                        ... done   (      0.0 sec)

----------------------------------------------
Forming right-hand sides of CP-SCF equations     ...
----------------------------------------------
One electron integral derivatives                ... done   (      0.3 sec)
Transforming the overlap derivative matrices     ... done   (      0.1 sec)
Making the Q(x) pseudodensities                  ... done   (      0.1 sec)
Adding the E*S(x)*S(y) terms to the Hessian      ... done   (      0.0 sec)
Calculating energy weighted overlap derivatives  ... done   (      0.6 sec)
Two electron integral derivatives (RI)           ... done   (      3.6 sec)
Exchange-correlation integral derivatives        ... done   (     48.0 sec)
tr(F(y)Q(x)) contribution to the Hessian         ... done   (      0.0 sec)
Response fock operator R(S(x)) (RI)              ... done   (     12.0 sec)
XC Response fock operator R(S(x))                ... done   (     20.9 sec)
tr(F(y)S(x)) contribution to the Hessian         ... done   (      0.0 sec)
Transforming and finalizing RHSs                 ... done   (      0.1 sec)

----------------------------------------------
Solving the CP-SCF equations (RI)                ...
----------------------------------------------
     CP-SCF ITERATION   0: 
     CP-SCF ITERATION   1:      0.376801183927
     CP-SCF ITERATION   2:      0.036079549846
     CP-SCF ITERATION   3:      0.002133336009
     CP-SCF ITERATION   4:      0.001345357789
     CP-SCF ITERATION   5:      0.000043762902
     CP-SCF ITERATION   6:      0.000029687005
     CP-SCF ITERATION   7:      0.000001792507
     CP-SCF ITERATION   8:      0.000000909771

                                                 ... done   (    234.1 sec)
Forming perturbed density Hessian contributions  ... done   (      0.0 sec)
Making the perturbed densities                   ... done   (      0.3 sec)
2nd integral derivative contribs (RI)            ... done   (     12.8 sec)
Exchange-correlation Hessian                     ... done   (     36.2 sec)
Dipol derivatives                                ... done   (      1.5 sec)

Total SCF Hessian time: 0 days 0 hours 6 min 11 sec 

Writing the Hessian file to the disk             ... done


-----------------------
VIBRATIONAL FREQUENCIES
-----------------------

   0:         0.00 cm**-1
   1:         0.00 cm**-1
   2:         0.00 cm**-1
   3:         0.00 cm**-1
   4:         0.00 cm**-1
   5:         0.00 cm**-1
   6:     -1182.70 cm**-1 ***imaginary mode***
   7:      -877.01 cm**-1 ***imaginary mode***
   8:      -798.84 cm**-1 ***imaginary mode***
   9:      -698.04 cm**-1 ***imaginary mode***
  10:      -587.07 cm**-1 ***imaginary mode***
  11:      -530.86 cm**-1 ***imaginary mode***
  12:      -462.02 cm**-1 ***imaginary mode***
  13:      -451.52 cm**-1 ***imaginary mode***
  14:      -415.81 cm**-1 ***imaginary mode***
  15:      -385.13 cm**-1 ***imaginary mode***
  16:      -344.60 cm**-1 ***imaginary mode***
  17:      -281.23 cm**-1 ***imaginary mode***
  18:      -236.21 cm**-1 ***imaginary mode***
  19:       335.92 cm**-1
  20:       337.54 cm**-1
  21:       394.20 cm**-1
  22:       400.03 cm**-1
  23:       464.29 cm**-1
  24:       538.02 cm**-1
  25:       593.26 cm**-1
  26:       631.90 cm**-1
  27:       678.65 cm**-1
  28:       741.52 cm**-1
  29:       813.95 cm**-1
  30:      3326.21 cm**-1
  31:      3326.30 cm**-1
  32:      3328.95 cm**-1
  33:      3329.87 cm**-1
  34:      3333.87 cm**-1
  35:      3334.88 cm**-1


------------
NORMAL MODES
------------

These modes are the cartesian displacements weighted by the diagonal matrix
M(i,i)=1/sqrt(m[i]) where m[i] is the mass of the displaced atom
Thus, these vectors are normalized but *not* orthogonal

                  0          1          2          3          4          5    
      0       0.000000   0.000000   0.000000   0.000000   0.000000   0.000000
      1       0.000000   0.000000   0.000000   0.000000   0.000000   0.000000
      2       0.000000   0.000000   0.000000   0.000000   0.000000   0.000000
      3       0.000000   0.000000   0.000000   0.000000   0.000000   0.000000
      4       0.000000   0.000000   0.000000   0.000000   0.000000   0.000000
      5       0.000000   0.000000   0.000000   0.000000   0.000000   0.000000
      6       0.000000   0.000000   0.000000   0.000000   0.000000   0.000000
      7       0.000000   0.000000   0.000000   0.000000   0.000000   0.000000
      8       0.000000   0.000000   0.000000   0.000000   0.000000   0.000000
      9       0.000000   0.000000   0.000000   0.000000   0.000000   0.000000
     10       0.000000   0.000000   0.000000   0.000000   0.000000   0.000000
     11       0.000000   0.000000   0.000000   0.000000   0.000000   0.000000
     12       0.000000   0.000000   0.000000   0.000000   0.000000   0.000000
     13       0.000000   0.000000   0.000000   0.000000   0.000000   0.000000
     14       0.000000   0.000000   0.000000   0.000000   0.000000   0.000000
     15       0.000000   0.000000   0.000000   0.000000   0.000000   0.000000
     16       0.000000   0.000000   0.000000   0.000000   0.000000   0.000000
     17       0.000000   0.000000   0.000000   0.000000   0.000000   0.000000
     18       0.000000   0.000000   0.000000   0.000000   0.000000   0.000000
     19       0.000000   0.000000   0.000000   0.000000   0.000000   0.000000
     20       0.000000   0.000000   0.000000   0.000000   0.000000   0.000000
     21       0.000000   0.000000   0.000000   0.000000   0.000000   0.000000
     22       0.000000   0.000000   0.000000   0.000000   0.000000   0.000000
     23       0.000000   0.000000   0.000000   0.000000   0.000000   0.000000
     24       0.000000   0.000000   0.000000   0.000000   0.000000   0.000000
     25       0.000000   0.000000   0.000000   0.000000   0.000000   0.000000
     26       0.000000   0.000000   0.000000   0.000000   0.000000   0.000000
     27       0.000000   0.000000   0.000000   0.000000   0.000000   0.000000
     28       0.000000   0.000000   0.000000   0.000000   0.000000   0.000000
     29       0.000000   0.000000   0.000000   0.000000   0.000000   0.000000
     30       0.000000   0.000000   0.000000   0.000000   0.000000   0.000000
     31       0.000000   0.000000   0.000000   0.000000   0.000000   0.000000
     32       0.000000   0.000000   0.000000   0.000000   0.000000   0.000000
     33       0.000000   0.000000   0.000000   0.000000   0.000000   0.000000
     34       0.000000   0.000000   0.000000   0.000000   0.000000   0.000000
     35       0.000000   0.000000   0.000000   0.000000   0.000000   0.000000
                  6          7          8          9         10         11    
      0      -0.000000  -0.000000  -0.000000  -0.384544   0.000000  -0.522451
      1       0.000000   0.000000   0.000000  -0.086823  -0.000000  -0.117736
      2      -0.026719   0.036423   0.077296   0.000000   0.032734   0.000000
      3       0.000000   0.000000  -0.000000   0.213319  -0.000000   0.199189
      4      -0.000000  -0.000000   0.000000   0.367600  -0.000000   0.362324
      5      -0.002241  -0.004655  -0.083455  -0.000000  -0.050004  -0.000000
      6      -0.000000  -0.000000  -0.000000   0.162865  -0.000000   0.102309
      7      -0.000000  -0.000000  -0.000000  -0.217252   0.000000  -0.011281
      8       0.114773  -0.022592  -0.029838   0.000000   0.060284   0.000000
      9       0.000000   0.000000   0.000000  -0.472496  -0.000000   0.482283
     10       0.000000   0.000000   0.000000   0.004983  -0.000000  -0.059038
     11       0.016514   0.092233  -0.025888   0.000000   0.004335  -0.000000
     12      -0.000000   0.000000  -0.000000  -0.084010  -0.000000   0.179442
     13       0.000000   0.000000   0.000000   0.024730  -0.000000  -0.075608
     14      -0.023893  -0.654621   0.105522  -0.000000  -0.063160  -0.000000
     15       0.000000   0.000000   0.000000   0.053119  -0.000000   0.079093
     16       0.000000   0.000000   0.000000   0.019818  -0.000000   0.087094
     17       0.080971   0.091050   0.606700   0.000000   0.358686   0.000003
     18      -0.000000   0.000000  -0.000000   0.092739  -0.000000  -0.109103
     19       0.000000   0.000000   0.000000  -0.058038  -0.000000   0.005494
     20      -0.096525   0.514146  -0.479591  -0.000000   0.316083   0.000003
     21       0.000000   0.000000   0.000000   0.028756   0.000000  -0.073717
     22       0.000000   0.000000   0.000000  -0.033384  -0.000000  -0.062871
     23       0.085738  -0.321143  -0.538402  -0.000000  -0.307235  -0.000001
     24       0.000000   0.000000   0.000000   0.287326   0.000000  -0.167099
     25      -0.000000  -0.000000   0.000000  -0.351124  -0.000000   0.106706
     26       0.004593  -0.071529   0.069309  -0.000000  -0.045916  -0.000000
     27       0.000000   0.000000  -0.000000   0.175358   0.000000  -0.106842
     28      -0.000000  -0.000000  -0.000000   0.290006   0.000000  -0.248609
     29      -0.096575  -0.047951  -0.015358   0.000000   0.069057   0.000001
     30       0.000000   0.000000  -0.000000   0.074396   0.000000   0.179378
     31       0.000000   0.000000   0.000000  -0.099401  -0.000001  -0.102567
     32      -0.769735   0.236903   0.175320  -0.000000  -0.526203  -0.000003
     33      -0.000000   0.000000   0.000000   0.051517  -0.000000  -0.104814
     34       0.000000   0.000000   0.000000   0.058230  -0.000001  -0.237193
     35       0.600167   0.348995   0.224988  -0.000000  -0.618111  -0.000004
                 12         13         14         15         16         17    
      0       0.067554   0.000000  -0.032440  -0.000000  -0.114916  -0.218507
      1       0.085100   0.000000  -0.008378   0.000000   0.127821  -0.119957
      2      -0.000000   0.046115   0.000000  -0.057075  -0.000000   0.000000
      3       0.090510   0.000000  -0.008659  -0.000000  -0.175083   0.060550
      4       0.165816   0.000000  -0.051455  -0.000000  -0.045441  -0.292434
      5      -0.000000   0.014009   0.000000  -0.067804  -0.000000   0.000000
      6      -0.150116  -0.000000  -0.041287  -0.000000   0.309500   0.167481
      7       0.473526   0.000000   0.063441   0.000000   0.213145   0.050425
      8       0.000000   0.009293  -0.000000  -0.018237  -0.000000   0.000000
      9      -0.137056   0.000000   0.029452   0.000000  -0.136755  -0.153392
     10      -0.014855  -0.000000  -0.003682   0.000000  -0.224057   0.243545
     11      -0.000000  -0.077441   0.000000   0.002223   0.000000  -0.000000
     12      -0.085371  -0.000000  -0.340569  -0.000001  -0.164495  -0.201772
     13      -0.006463  -0.000000  -0.022024   0.000000  -0.230281   0.245566
     14      -0.000000   0.720227  -0.000000   0.145887   0.000000  -0.000000
     15       0.061912   0.000000   0.124281   0.000000  -0.170562   0.019951
     16       0.109972   0.000000   0.236469   0.000001  -0.033980  -0.387622
     17       0.000001  -0.109548  -0.000002   0.675852   0.000001  -0.000000
     18       0.150338  -0.000000  -0.176831  -0.000000  -0.219043   0.225457
     19      -0.134493   0.000000   0.256480   0.000001   0.000564   0.275778
     20       0.000000   0.539575  -0.000001   0.281451   0.000000   0.000000
     21       0.051600   0.000000   0.331144   0.000001  -0.221067  -0.303900
     22       0.080008   0.000000   0.039819   0.000000   0.116190  -0.132379
     23       0.000000  -0.313564  -0.000001   0.626290   0.000001  -0.000001
     24       0.243123   0.000000   0.012480   0.000000  -0.236826   0.213222
     25      -0.275415  -0.000000  -0.028740  -0.000000   0.029288   0.280741
     26       0.000000  -0.054308   0.000000  -0.033349  -0.000000   0.000000
     27      -0.117919  -0.000000   0.035701   0.000000   0.368365  -0.050779
     28      -0.439295   0.000000   0.061457   0.000000  -0.103657  -0.150119
     29       0.000000  -0.035382  -0.000000   0.005558  -0.000000   0.000000
     30      -0.064851   0.000000   0.355473   0.000001   0.242088   0.139489
     31       0.368704  -0.000000  -0.459384  -0.000001   0.310917   0.095592
     32      -0.000000   0.081576   0.000000   0.170355   0.000000  -0.000001
     33      -0.067116  -0.000000  -0.236874  -0.000001   0.362863  -0.100546
     34      -0.356693  -0.000000  -0.440318  -0.000001  -0.128840  -0.242324
     35      -0.000001   0.246062   0.000000   0.110139   0.000000  -0.000001
                 18         19         20         21         22         23    
      0      -0.026326   0.000002  -0.076884   0.058394   0.000000  -0.000000
      1       0.275179  -0.000003   0.122459  -0.249453  -0.000003   0.000000
      2      -0.000000   0.133405   0.000004  -0.000002   0.256154   0.238857
      3      -0.293344   0.000005  -0.194613  -0.153125  -0.000003   0.000000
      4       0.002098  -0.000003   0.101473   0.076505   0.000002  -0.000000
      5       0.000000   0.143745   0.000006   0.000001  -0.125060  -0.310506
      6       0.257101   0.000007  -0.277485   0.040255  -0.000001   0.000000
      7      -0.135467   0.000006  -0.213336   0.007204  -0.000001   0.000000
      8       0.000000  -0.315197  -0.000011   0.000001  -0.078758  -0.078811
      9       0.105961  -0.000001   0.049021   0.016270   0.000000  -0.000000
     10       0.123040  -0.000000   0.001547   0.291879   0.000003   0.000000
     11      -0.000000  -0.057330  -0.000004  -0.000004   0.355212  -0.121525
     12       0.153356   0.000010  -0.366595   0.093706   0.000000  -0.000000
     13       0.129182   0.000000  -0.016038   0.298433   0.000003   0.000000
     14      -0.000000  -0.045261  -0.000005  -0.000005   0.534836  -0.264941
     15      -0.293582   0.000006  -0.220163  -0.018461  -0.000003   0.000001
     16       0.016228  -0.000002   0.053552   0.368683   0.000003   0.000001
     17      -0.000000   0.103823   0.000004   0.000002  -0.211294  -0.501133
     18       0.168530  -0.000005   0.197697   0.057246   0.000003  -0.000001
     19      -0.248231  -0.000006   0.199878  -0.347973  -0.000005   0.000001
     20       0.000000  -0.207645  -0.000004   0.000004  -0.397580   0.435992
     21      -0.073832  -0.000005   0.197161   0.320706   0.000004   0.000000
     22       0.275421  -0.000004   0.163187  -0.215001  -0.000002   0.000000
     23      -0.000001   0.134763   0.000002  -0.000003   0.327681   0.424002
     24       0.122191  -0.000006   0.221868  -0.115390  -0.000000  -0.000000
     25      -0.180658  -0.000004   0.158018  -0.086237   0.000000  -0.000000
     26       0.000000  -0.189401  -0.000005   0.000002  -0.203722   0.230920
     27      -0.175604  -0.000008   0.294569   0.134966   0.000003  -0.000000
     28      -0.058227   0.000005  -0.188501  -0.043050  -0.000001   0.000000
     29       0.000000   0.291718   0.000012   0.000002  -0.190755   0.040653
     30       0.401961   0.000010  -0.364143  -0.187302  -0.000004   0.000000
     31      -0.321669   0.000003  -0.105189   0.306075   0.000002   0.000001
     32      -0.000000  -0.609289  -0.000023   0.000001  -0.085248  -0.238694
     33      -0.237023  -0.000010   0.359733  -0.043906   0.000001   0.000000
     34      -0.160319   0.000002  -0.076867  -0.372651  -0.000007   0.000001
     35      -0.000000   0.540920   0.000020   0.000003  -0.324145   0.149687
                 24         25         26         27         28         29    
      0       0.027442  -0.004078   0.029420   0.024924   0.019680  -0.064602
      1      -0.213967  -0.048673  -0.012712  -0.010562  -0.026473   0.065170
      2      -0.000000  -0.000000  -0.000000  -0.000000  -0.000000   0.000000
      3      -0.222911  -0.022747  -0.005316   0.006761  -0.039810   0.030884
      4       0.092867   0.021648   0.055565   0.013538   0.025020  -0.075969
      5       0.000000  -0.000000  -0.000000   0.000000  -0.000000  -0.000000
      6       0.122252  -0.026827  -0.007941   0.005524  -0.029057   0.001063
      7       0.067916   0.050248   0.018760  -0.003800   0.004506  -0.018013
      8      -0.000000   0.000000   0.000000  -0.000000   0.000000   0.000000
      9       0.021962  -0.037569  -0.004902   0.027353  -0.030768  -0.028408
     10      -0.199569   0.010818  -0.055301  -0.004700  -0.041589  -0.044910
     11      -0.000000  -0.000000  -0.000000  -0.000000  -0.000000   0.000000
     12      -0.225876   0.128675  -0.024241  -0.620315   0.653632   0.176766
     13      -0.213089   0.018181  -0.063287  -0.035841  -0.013238  -0.040845
     14      -0.000000  -0.000000  -0.000001  -0.000000  -0.000000   0.000000
     15      -0.103564  -0.054788  -0.282994   0.135787   0.096778   0.310157
     16       0.362055  -0.052427  -0.545523   0.294613   0.327920   0.507346
     17      -0.000000  -0.000000  -0.000000  -0.000000   0.000000   0.000000
     18       0.045430   0.256805   0.305401   0.226406   0.013022   0.331749
     19       0.326887  -0.362300  -0.388955  -0.331124   0.094325  -0.451085
     20       0.000000   0.000000   0.000000   0.000000   0.000000  -0.000000
     21       0.407652   0.157852   0.084899  -0.578880  -0.519028   0.422562
     22      -0.163390  -0.030568  -0.008709  -0.093188  -0.100998   0.139064
     23       0.000000   0.000000   0.000000   0.000000   0.000000  -0.000000
     24       0.187419  -0.013028   0.005650   0.005702   0.037829  -0.005363
     25       0.104652   0.039616   0.063674   0.003510   0.046467   0.044105
     26       0.000000   0.000000   0.000000   0.000000   0.000000  -0.000000
     27      -0.139638   0.004974   0.002600  -0.001254   0.024085  -0.017861
     28       0.066314  -0.028232   0.055709   0.018026   0.006917   0.007581
     29       0.000000   0.000000   0.000000   0.000000   0.000000  -0.000000
     30      -0.077385   0.431353  -0.010708   0.024573   0.110044  -0.163375
     31       0.337932  -0.547906   0.016402  -0.033018  -0.184037   0.201475
     32       0.000000   0.000000   0.000000   0.000000   0.000000  -0.000000
     33      -0.004861   0.263033  -0.304844  -0.009867  -0.139469  -0.073529
     34       0.324140   0.433754  -0.507677   0.007760  -0.300909  -0.093381
     35       0.000000   0.000000   0.000001   0.000000   0.000001  -0.000000
                 30         31         32         33         34         35    
      0       0.002923   0.001007   0.008802   0.006537  -0.000463   0.001376
      1      -0.015516  -0.007617  -0.065116  -0.048788  -0.002690  -0.014042
      2       0.000000  -0.000000  -0.000000  -0.000000  -0.000000   0.000000
      3       0.003797  -0.002558  -0.012882  -0.001849   0.053479   0.054059
      4      -0.001270   0.001125   0.006734   0.001344  -0.025513  -0.024122
      5      -0.000000  -0.000000   0.000000  -0.000000   0.000000  -0.000000
      6      -0.065151   0.011970   0.003602   0.011792   0.000745   0.005469
      7      -0.049404   0.007986   0.003797   0.009739   0.000725   0.004198
      8      -0.000000   0.000000  -0.000000   0.000000  -0.000000   0.000000
      9      -0.000211   0.000157   0.002451  -0.003180  -0.000591   0.000805
     10       0.010984   0.014952  -0.051426   0.064890  -0.004381  -0.005786
     11       0.000000  -0.000000  -0.000000  -0.000000   0.000000  -0.000000
     12       0.004958   0.004494  -0.026981   0.034771   0.001452  -0.006231
     13      -0.128561  -0.174370   0.601374  -0.758148   0.048702   0.070428
     14       0.000000  -0.000000  -0.000000   0.000000  -0.000000   0.000000
     15      -0.043329   0.029877   0.151668   0.021760  -0.628544  -0.628233
     16       0.018259  -0.013635  -0.073613  -0.013193   0.295893   0.288128
     17      -0.000000   0.000000  -0.000000   0.000000  -0.000000   0.000000
     18       0.020792  -0.048910  -0.071366  -0.037285  -0.589865   0.573812
     19       0.014059  -0.030844  -0.049496  -0.019897  -0.397886   0.379274
     20       0.000000  -0.000000  -0.000000   0.000000  -0.000000   0.000000
     21      -0.028460  -0.012010  -0.105639  -0.078717  -0.000703  -0.020150
     22       0.182002   0.089543   0.761292   0.569811   0.033445   0.166287
     23      -0.000000   0.000000   0.000000  -0.000000   0.000000  -0.000000
     24      -0.001746   0.004382   0.006082   0.003279   0.050019  -0.049442
     25      -0.001248   0.002370   0.004662   0.001287   0.034256  -0.032166
     26      -0.000000   0.000000   0.000000   0.000000   0.000000   0.000000
     27      -0.009389  -0.072101  -0.000989   0.016740   0.001040  -0.003604
     28       0.005942   0.038874   0.001327  -0.009992  -0.000683   0.001978
     29       0.000000  -0.000000  -0.000000   0.000000  -0.000000  -0.000000
     30       0.764556  -0.135592  -0.044417  -0.140542  -0.010446  -0.064898
     31       0.581315  -0.098925  -0.037880  -0.110843  -0.007908  -0.048439
     32      -0.000000   0.000000  -0.000000   0.000000   0.000000   0.000000
     33       0.112911   0.843041   0.012534  -0.197020  -0.013859   0.042485
     34      -0.065192  -0.459204  -0.009859   0.112059   0.007339  -0.022296
     35      -0.000000   0.000000   0.000000   0.000000   0.000000   0.000000


-----------
IR SPECTRUM
-----------

 Mode    freq (cm**-1)   T**2         TX         TY         TZ
-------------------------------------------------------------------
  19:       335.92    0.095802  (  0.000036  -0.000111  -0.309520)
  20:       337.54    1.202111  ( -0.147351   1.086462  -0.000016)
  21:       394.20    1.642739  (  1.143326   0.579262   0.000005)
  22:       400.03    0.358416  ( -0.000066  -0.000549  -0.598679)
  23:       464.29    0.000004  (  0.000008   0.000211   0.001981)
  24:       538.02    0.227876  (  0.321054  -0.353272   0.000000)
  25:       593.26   12.603861  ( -2.797867   2.185361   0.000004)
  26:       631.90   18.616797  ( -0.920649   4.215353   0.000011)
  27:       678.65    8.813950  (  2.944035  -0.382892   0.000002)
  28:       741.52    5.036893  (  0.101704  -2.241997   0.000006)
  29:       813.95    3.193683  ( -1.621193   0.751941  -0.000002)
  30:      3326.21   14.236608  (  2.620902   2.714310  -0.000003)
  31:      3326.30    9.519962  (  1.666223  -2.596857   0.000003)
  32:      3328.95    6.760894  ( -0.039890   2.599866   0.000000)
  33:      3329.87    0.372799  ( -0.203424  -0.575689   0.000000)
  34:      3333.87   20.675979  ( -4.543647  -0.176779   0.000000)
  35:      3334.88    2.269235  (  0.062654   1.505095   0.000000)

The first frequency considered to be a vibration is 19
The total number of vibrations considered is 17


--------------------------
THERMOCHEMISTRY AT 298.15K
--------------------------

Temperature         ... 298.15 K
Pressure            ... 1.00 atm
Total Mass          ... 78.11 AMU

Throughout the following assumptions are being made:
  (1) The electronic state is orbitally nondegenerate
  (2) There are no thermally accessible electronically excited states
  (3) Hindered rotations indicated by low frequency modes are not
      treated as such but are treated as vibrations and this may
      cause some error
  (4) All equations used are the standard statistical mechanics
      equations for an ideal gas
  (5) All vibrations are strictly harmonic

freq.     335.92  E(vib)   ...       0.24 
freq.     337.54  E(vib)   ...       0.24 
freq.     394.20  E(vib)   ...       0.20 
freq.     400.03  E(vib)   ...       0.19 
freq.     464.29  E(vib)   ...       0.16 
freq.     538.02  E(vib)   ...       0.12 
freq.     593.26  E(vib)   ...       0.10 
freq.     631.90  E(vib)   ...       0.09 
freq.     678.65  E(vib)   ...       0.08 
freq.     741.52  E(vib)   ...       0.06 
freq.     813.95  E(vib)   ...       0.05 
freq.    3326.21  E(vib)   ...       0.00 
freq.    3326.30  E(vib)   ...       0.00 
freq.    3328.95  E(vib)   ...       0.00 
freq.    3329.87  E(vib)   ...       0.00 
freq.    3333.87  E(vib)   ...       0.00 
freq.    3334.88  E(vib)   ...       0.00 

------------
INNER ENERGY
------------

The inner energy is: U= E(el) + E(ZPE) + E(vib) + E(rot) + E(trans)
    E(el)   - is the total energy from the electronic structure calculation
              = E(kin-el) + E(nuc-el) + E(el-el) + E(nuc-nuc)
    E(ZPE)  - the the zero temperature vibrational energy from the frequency calculation
    E(vib)  - the the finite temperature correction to E(ZPE) due to population
              of excited vibrational states
    E(rot)  - is the rotational thermal energy
    E(trans)- is the translational thermal energy

Summary of contributions to the inner energy U:
Electronic energy                ...   -231.05460077 Eh
Zero point energy                ...      0.05902591 Eh      37.04 kcal/mol
Thermal vibrational correction   ...      0.00242630 Eh       1.52 kcal/mol
Thermal rotational correction    ...      0.00141627 Eh       0.89 kcal/mol
Thermal translational correction ...      0.00141627 Eh       0.89 kcal/mol
-----------------------------------------------------------------------
Total thermal energy                   -230.99031601 Eh


Summary of corrections to the electronic energy:
(perhaps to be used in another calculation)
Total thermal correction                  0.00525884 Eh       3.30 kcal/mol
Non-thermal (ZPE) correction              0.05902591 Eh      37.04 kcal/mol
-----------------------------------------------------------------------
Total correction                          0.06428475 Eh      40.34 kcal/mol


--------
ENTHALPY
--------

The enthalpy is H = U + kB*T
                kB is Boltzmann's constant
Total free energy                 ...   -230.99031601 Eh 
Thermal Enthalpy correction       ...      0.00094421 Eh       0.59 kcal/mol
-----------------------------------------------------------------------
Total Enthalpy                    ...   -230.98937180 Eh


Vibrational entropy computed according to the QRRHO of S. Grimme
Chem.Eur.J. 2012 18 9955


-------
ENTROPY
-------

The entropy contributions are T*S = T*(S(el)+S(vib)+S(rot)+S(trans)
     S(el)   - electronic entropy
     S(vib)  - vibrational entropy
     S(rot)  - rotational entropy
     S(trans)- translational entropy
The entropies will be listed as mutliplied by the temperature to get
units of energy

Electronic entropy                ...      0.00000000 Eh      0.00 kcal/mol
Vibrational entropy               ...      0.00351033 Eh      2.20 kcal/mol
Rotational entropy                ...      0.01234504 Eh      7.75 kcal/mol
Translational entropy             ...      0.01852142 Eh     11.62 kcal/mol
-----------------------------------------------------------------------
Final entropy term                ...      0.03437679 Eh     21.57 kcal/mol


CAUTION: The rotational entropy is not quite correctly treated here
         because it includes a symmetry number that is not yet correctly
         implemented in ORCA!
For a nonlinear molecule the correct rotational entropy is:
    S(rot) = R*(ln(qrot/sn)+1.5)
    R    = 8.31441 J/mol/K = 1.987191683e-3 kcal/mol/K
    qrot = 319170.5375282
    sn is the rotational symmetry number. We have assumed 3 here
       if it is different for your molecule then you should correct
       the printed rotational entropy by manually evaluating the equation
       as given above

For convenience we print out the resulting values for sn=1 - 12:
 sn= 1  qrot/sn=  319170.5375 T*S(rot)=     8.40 kcal/mol T*S(tot)=    22.22 kcal/mol
 sn= 2  qrot/sn=  159585.2688 T*S(rot)=     7.99 kcal/mol T*S(tot)=    21.81 kcal/mol
 sn= 3  qrot/sn=  106390.1792 T*S(rot)=     7.75 kcal/mol T*S(tot)=    21.57 kcal/mol
 sn= 4  qrot/sn=   79792.6344 T*S(rot)=     7.58 kcal/mol T*S(tot)=    21.40 kcal/mol
 sn= 5  qrot/sn=   63834.1075 T*S(rot)=     7.44 kcal/mol T*S(tot)=    21.27 kcal/mol
 sn= 6  qrot/sn=   53195.0896 T*S(rot)=     7.34 kcal/mol T*S(tot)=    21.16 kcal/mol
 sn= 7  qrot/sn=   45595.7911 T*S(rot)=     7.24 kcal/mol T*S(tot)=    21.07 kcal/mol
 sn= 8  qrot/sn=   39896.3172 T*S(rot)=     7.17 kcal/mol T*S(tot)=    20.99 kcal/mol
 sn= 9  qrot/sn=   35463.3931 T*S(rot)=     7.10 kcal/mol T*S(tot)=    20.92 kcal/mol
 sn=10  qrot/sn=   31917.0538 T*S(rot)=     7.03 kcal/mol T*S(tot)=    20.86 kcal/mol
 sn=11  qrot/sn=   29015.5034 T*S(rot)=     6.98 kcal/mol T*S(tot)=    20.80 kcal/mol
 sn=12  qrot/sn=   26597.5448 T*S(rot)=     6.93 kcal/mol T*S(tot)=    20.75 kcal/mol


-------------------
GIBBS FREE ENTHALPY
-------------------

The Gibbs free enthalpy is G = H - T*S

Total enthalpy                    ...   -230.98937180 Eh 
Total entropy correction          ...     -0.03437679 Eh    -21.57 kcal/mol
-----------------------------------------------------------------------
Final Gibbs free enthalpy         ...   -231.02374860 Eh

For completeness - the Gibbs free enthalpy minus the electronic energy
G-E(el)                           ...      0.03085217 Eh     19.36 kcal/mol


Timings for individual modules:

Sum of individual times         ...      429.570 sec (=   7.159 min)
GTO integral calculation        ...        0.386 sec (=   0.006 min)   0.1 %
SCF iterations                  ...       58.065 sec (=   0.968 min)  13.5 %
Analytical frequency calculation...      371.118 sec (=   6.185 min)  86.4 %
                             ****ORCA TERMINATED NORMALLY****
TOTAL RUN TIME: 0 days 0 hours 7 minutes 10 seconds 791 msec
