
                                 *****************
                                 * O   R   C   A *
                                 *****************

           --- An Ab Initio, DFT and Semiempirical electronic structure package ---

                  #######################################################
                  #                        -***-                        #
                  #  Department of molecular theory and spectroscopy    #
                  #              Directorship: Frank Neese              #
                  # Max Planck Institute for Chemical Energy Conversion #
                  #                  D-45470 Muelheim/Ruhr              #
                  #                       Germany                       #
                  #                                                     #
                  #                  All rights reserved                #
                  #                        -***-                        #
                  #######################################################


                         Program Version 4.0.1.2 - RELEASE -


 With contributions from (in alphabetic order):
   Daniel Aravena         : Magnetic Properties
   Michael Atanasov       : Ab Initio Ligand Field Theory
   Ute Becker             : Parallelization
   Martin Brehm           : Molecular dynamics
   Dmytro Bykov           : SCF Hessian
   Vijay G. Chilkuri      : MRCI spin determinant printing
   Dipayan Datta          : RHF DLPNO-CCSD density
   Achintya Kumar Dutta   : EOM-CC, STEOM-CC
   Dmitry Ganyushin       : Spin-Orbit,Spin-Spin,Magnetic field MRCI
   Yang Guo               : DLPNO-NEVPT2, CIM, IAO-localization
   Andreas Hansen         : Spin unrestricted coupled pair/coupled cluster methods
   Lee Huntington         : MR-EOM, pCC
   Robert Izsak           : Overlap fitted RIJCOSX, COSX-SCS-MP3, EOM
   Christian Kollmar      : KDIIS, OOCD, Brueckner-CCSD(T), CCSD density
   Simone Kossmann        : Meta GGA functionals, TD-DFT gradient, OOMP2, MP2 Hessian
   Martin Krupicka        : AUTO-CI
   Dagmar Lenk            : GEPOL surface
   Dimitrios Liakos       : Extrapolation schemes; parallel MDCI
   Dimitrios Manganas     : ROCIS; embedding schemes
   Dimitrios Pantazis     : SARC Basis sets
   Taras Petrenko         : DFT Hessian,TD-DFT gradient, ASA, ECA, R-Raman, ABS, FL, XAS/XES, NRVS
   Peter Pinski           : DLPNO-MP2
   Christoph Reimann      : Effective Core Potentials
   Marius Retegan         : Local ZFS, SOC
   Christoph Riplinger    : Optimizer, TS searches, QM/MM, DLPNO-CCSD(T), (RO)-DLPNO pert. Triples
   Tobias Risthaus        : Range-separated hybrids, TD-DFT gradient, RPA, STAB
   Michael Roemelt        : Restricted open shell CIS
   Masaaki Saitow         : Open-shell DLPNO
   Barbara Sandhoefer     : DKH picture change effects
   Kantharuban Sivalingam : CASSCF convergence, NEVPT2, FIC-MRCI
   Georgi Stoychev        : AutoAux
   Boris Wezisla          : Elementary symmetry handling
   Frank Wennmohs         : Technical directorship


 We gratefully acknowledge several colleagues who have allowed us to
 interface, adapt or use parts of their codes:
   Stefan Grimme, W. Hujo, H. Kruse,             : VdW corrections, initial TS optimization,
                  C. Bannwarth                     DFT functionals, gCP, sTDA/sTD-DF
   Ed Valeev                                     : LibInt (2-el integral package), F12 methods
   Garnet Chan, S. Sharma, J. Yang, R. Olivares  : DMRG
   Ulf Ekstrom                                   : XCFun DFT Library
   Mihaly Kallay                                 : mrcc  (arbitrary order and MRCC methods)
   Andreas Klamt, Michael Diedenhofen            : otool_cosmo (COSMO solvation model)
   Jiri Pittner, Ondrej Demel                    : Mk-CCSD
   Frank Weinhold                                : gennbo (NPA and NBO analysis)
   Christopher J. Cramer and Donald G. Truhlar   : smd solvation model


 Your calculation uses the libint2 library for the computation of 2-el integrals
 For citations please refer to: http://libint.valeyev.net

 This ORCA versions uses:
   CBLAS   interface :  Fast vector & matrix operations
   LAPACKE interface :  Fast linear algebra routines
   SCALAPACK package :  Parallel linear algebra routines




*****************************************
The coordinations will be read from file: C6H6.xyz
*****************************************


Your calculation utilizes the basis: def2-TZVP
   F. Weigend and R. Ahlrichs, Phys. Chem. Chem. Phys. 7, 3297 (2005).

Your calculation utilizes the auxiliary basis: def2/J
   F. Weigend, Phys. Chem. Chem. Phys. 8, 1057 (2006).

================================================================================
                                        WARNINGS
                       Please study these warnings very carefully!
================================================================================

Warning: TCutStore was < 0. Adjusted to Thresh (uncritical)

WARNING: Geometry Optimization
  ===> : Switching off AutoStart
         For restart on a previous wavefunction, please use MOREAD

INFO   : the flag for use of LIBINT has been found!

================================================================================
                                       INPUT FILE
================================================================================
NAME = opt.inp
|  1> # avogadro generated ORCA input file 
|  2> # Basic Mode
|  3> # 
|  4> ! PBE OPT def2-TZVP
|  5> 
|  6> * xyzfile 0 1 C6H6.xyz
|  7> 
|  8> 
|  9>                          ****END OF INPUT****
================================================================================

                       *****************************
                       * Geometry Optimization Run *
                       *****************************

Geometry optimization settings:
Update method            Update   .... BFGS
Choice of coordinates    CoordSys .... Redundant Internals
Initial Hessian          InHess   .... Almoef's Model

Convergence Tolerances:
Energy Change            TolE     ....  5.0000e-06 Eh
Max. Gradient            TolMAXG  ....  3.0000e-04 Eh/bohr
RMS Gradient             TolRMSG  ....  1.0000e-04 Eh/bohr
Max. Displacement        TolMAXD  ....  4.0000e-03 bohr
RMS Displacement         TolRMSD  ....  2.0000e-03 bohr

------------------------------------------------------------------------------
                        ORCA OPTIMIZATION COORDINATE SETUP
------------------------------------------------------------------------------

The optimization will be done in new redundant internal coordinates
Making redundant internal coordinates   ...  (new redundants) done
Evaluating the initial hessian          ...  (Almloef) done
Evaluating the coordinates              ...  done
Calculating the B-matrix                .... done
Calculating the G-matrix                .... done
Diagonalizing the G-matrix              .... done
The first mode is                       ....   46
The number of degrees of freedom        ....   30

    -----------------------------------------------------------------
                    Redundant Internal Coordinates


    -----------------------------------------------------------------
         Definition                    Initial Value    Approx d2E/dq
    -----------------------------------------------------------------
      1. B(C   1,C   0)                  1.8535         0.113811   
      2. B(C   2,C   0)                  2.4287         0.013760   
      3. B(H   4,C   3)                  1.0700         0.387553   
      4. B(H   5,C   1)                  1.0700         0.387555   
      5. B(H   7,C   0)                  1.0700         0.387557   
      6. B(C   8,H   6)                  1.0700         0.387546   
      7. B(C   8,C   3)                  1.9963         0.067351   
      8. B(C   8,H   5)                  2.9526         0.000384   
      9. B(C   8,C   1)                  2.2820         0.023580   
     10. B(C   9,C   2)                  2.3265         0.020027   
     11. B(C   9,H   4)                  2.9430         0.000398   
     12. B(C   9,C   3)                  2.2889         0.022995   
     13. B(H  10,C   2)                  1.0700         0.387543   
     14. B(H  11,C   9)                  1.0700         0.387559   
     15. A(C   2,C   0,H   7)          116.8139         0.202335   
     16. A(C   1,C   0,C   2)          126.3717         0.188302   
     17. A(C   1,C   0,H   7)          116.8143         0.271829   
     18. A(H   5,C   1,C   8)          118.9707         0.217030   
     19. A(C   0,C   1,H   5)          118.9716         0.271829   
     20. A(C   0,C   1,C   8)          122.0577         0.201178   
     21. A(C   9,C   2,H  10)          124.6274         0.212383   
     22. A(C   0,C   2,C   9)          110.7449         0.156015   
     23. A(C   0,C   2,H  10)          124.6277         0.202334   
     24. A(C   8,C   3,C   9)          124.5819         0.188053   
     25. A(H   4,C   3,C   9)          117.7088         0.216303   
     26. A(H   4,C   3,C   8)          117.7093         0.251359   
     27. A(C   3,H   4,C   9)           43.5147         0.132963   
     28. A(C   1,H   5,C   8)           42.5451         0.132613   
     29. A(C   1,C   8,C   3)          119.0576         0.188618   
     30. A(C   1,C   8,H   5)           18.4841         0.115760   
     31. A(H   5,C   8,H   6)          101.9875         0.132613   
     32. A(C   3,C   8,H   5)          137.5417         0.122935   
     33. A(C   1,C   8,H   6)          120.4716         0.217030   
     34. A(C   3,C   8,H   6)          120.4708         0.251358   
     35. A(C   3,C   9,H  11)          121.4068         0.216304   
     36. A(C   2,C   9,H   4)          135.9627         0.114995   
     37. A(C   2,C   9,C   3)          117.1862         0.164275   
     38. A(C   2,C   9,H  11)          121.4070         0.212384   
     39. A(C   3,C   9,H   4)           18.7765         0.115821   
     40. A(H   4,C   9,H  11)          102.6303         0.132963   
     41. D(H   5,C   1,C   0,C   2)    180.0000         0.002165   
     42. D(C   8,C   1,C   0,C   2)      0.0000         0.002165   
     43. D(C   8,C   1,C   0,H   7)    180.0000         0.002165   
     44. D(H   5,C   1,C   0,H   7)      0.0000         0.002165   
     45. D(C   9,C   2,C   0,C   1)      0.0000         0.001510   
     46. D(H  10,C   2,C   0,H   7)      0.0000         0.001510   
     47. D(H  10,C   2,C   0,C   1)    180.0000         0.001510   
     48. D(C   9,C   2,C   0,H   7)    180.0000         0.001510   
     49. D(C   9,H   4,C   3,C   8)    180.0000         0.131184   
     50. D(C   8,H   5,C   1,C   0)    180.0000         0.131186   
     51. D(H   6,C   8,C   1,C   0)    180.0000         0.001531   
     52. D(H   5,C   8,C   1,C   0)    180.0000         0.001531   
     53. D(H   6,C   8,C   1,H   5)      0.0000         0.001531   
     54. D(C   3,C   8,C   1,H   5)    180.0000         0.001531   
     55. D(C   3,C   8,C   1,C   0)      0.0000         0.001531   
     56. D(H   5,C   8,C   3,C   9)      0.0000         0.001750   
     57. D(H   5,C   8,C   3,H   4)    180.0000         0.001750   
     58. D(C   1,C   8,C   3,C   9)      0.0000         0.001750   
     59. D(C   1,C   8,C   3,H   4)    180.0000         0.001750   
     60. D(H   6,C   8,C   3,C   9)    180.0000         0.001750   
     61. D(C   3,C   8,H   5,C   1)      0.0000         0.001500   
     62. D(H   6,C   8,H   5,C   1)    180.0000         0.001500   
     63. D(H   6,C   8,C   3,H   4)      0.0000         0.001750   
     64. D(H  11,C   9,C   3,H   4)      0.0000         0.001530   
     65. D(H   4,C   9,C   2,C   0)      0.0000         0.001523   
     66. D(H   4,C   9,C   2,H  10)    180.0000         0.001523   
     67. D(C   3,C   9,C   2,C   0)      0.0000         0.001523   
     68. D(C   3,C   9,C   2,H  10)    180.0000         0.001523   
     69. D(H  11,C   9,C   2,C   0)    180.0000         0.001523   
     70. D(H  11,C   9,C   3,C   8)    180.0000         0.001530   
     71. D(H  11,C   9,C   2,H  10)      0.0000         0.001523   
     72. D(C   2,C   9,H   4,C   3)      0.0000         0.001500   
     73. D(H  11,C   9,H   4,C   3)    180.0000         0.001500   
     74. D(C   2,C   9,C   3,C   8)      0.0000         0.001530   
     75. D(C   2,C   9,C   3,H   4)    180.0000         0.001530   
     76. D(H   4,C   9,C   3,C   8)    180.0000         0.001530   
    -----------------------------------------------------------------

Number of atoms                         .... 12
Number of degrees of freedom            .... 76

         *************************************************************
         *                GEOMETRY OPTIMIZATION CYCLE   1            *
         *************************************************************
---------------------------------
CARTESIAN COORDINATES (ANGSTROEM)
---------------------------------
  C     -2.831900    2.847290   -0.000000
  C     -4.340190    1.769940   -0.000000
  C     -0.523290    2.093140    0.000000
  C     -2.400960   -1.369780    0.000000
  H     -2.361160   -2.439040    0.000000
  H     -5.306030    2.230430    0.000000
  H     -5.089250   -1.105480   -0.000000
  H     -2.994180    3.904910   -0.000000
  C     -4.201670   -0.507890   -0.000000
  C     -0.415550   -0.230860   -0.000000
  H      0.328080    2.741280    0.000000
  H      0.522520   -0.745560   -0.000000

----------------------------
CARTESIAN COORDINATES (A.U.)
----------------------------
  NO LB      ZA    FRAG     MASS         X           Y           Z
   0 C     6.0000    0    12.011   -5.351515    5.380598   -0.000000
   1 C     6.0000    0    12.011   -8.201770    3.344702   -0.000000
   2 C     6.0000    0    12.011   -0.988875    3.955461    0.000000
   3 C     6.0000    0    12.011   -4.537157   -2.588509    0.000000
   4 H     1.0000    0     1.008   -4.461946   -4.609118    0.000000
   5 H     1.0000    0     1.008  -10.026944    4.214902    0.000000
   6 H     1.0000    0     1.008   -9.617289   -2.089054   -0.000000
   7 H     1.0000    0     1.008   -5.658180    7.379210   -0.000000
   8 C     6.0000    0    12.011   -7.940006   -0.959773   -0.000000
   9 C     6.0000    0    12.011   -0.785276   -0.436262   -0.000000
  10 H     1.0000    0     1.008    0.619981    5.180268    0.000000
  11 H     1.0000    0     1.008    0.987420   -1.408904   -0.000000

--------------------------------
INTERNAL COORDINATES (ANGSTROEM)
--------------------------------
 C      0   0   0     0.000000000000     0.00000000     0.00000000
 C      1   0   0     1.853543025290     0.00000000     0.00000000
 C      1   2   0     2.428666785420   126.37174164     0.00000000
 C      2   1   3     3.690319047359    93.83636468     0.00000000
 H      4   2   1     1.070000461495   150.43036652   180.00000000
 H      2   1   3     1.069999040046   118.97160414   180.00000000
 H      4   2   1     2.701251120148    52.68368090   180.00000000
 H      1   2   3     1.069997599437   116.81431395   180.00000000
 C      7   4   2     1.070005637602    39.56660607     0.00000000
 C      4   2   1     2.288884364598    91.86080207     0.00000000
 H      3   1   2     1.070007633851   124.62774123   180.00000085
 H     10   4   2     1.069995988264   121.40680479   180.00000000

---------------------------
INTERNAL COORDINATES (A.U.)
---------------------------
 C      0   0   0     0.000000000000     0.00000000     0.00000000
 C      1   0   0     3.502688695237     0.00000000     0.00000000
 C      1   2   0     4.589515094994   126.37174164     0.00000000
 C      2   1   3     6.973692346302    93.83636468     0.00000000
 H      4   2   1     2.022007835395   150.43036652   180.00000000
 H      2   1   3     2.022005149246   118.97160414   180.00000000
 H      4   2   1     5.104624836027    52.68368090   180.00000000
 H      1   2   3     2.022002426888   116.81431395   180.00000000
 C      7   4   2     2.022017616820    39.56660607     0.00000000
 C      4   2   1     4.325364601304    91.86080207     0.00000000
 H      3   1   2     2.022021389184   124.62774123   180.00000085
 H     10   4   2     2.021999382212   121.40680479   180.00000000

---------------------
BASIS SET INFORMATION
---------------------
There are 2 groups of distinct atoms

 Group   1 Type C   : 11s6p2d1f contracted to 5s3p2d1f pattern {62111/411/11/1}
 Group   2 Type H   : 5s1p contracted to 3s1p pattern {311/1}

Atom   0C    basis set group =>   1
Atom   1C    basis set group =>   1
Atom   2C    basis set group =>   1
Atom   3C    basis set group =>   1
Atom   4H    basis set group =>   2
Atom   5H    basis set group =>   2
Atom   6H    basis set group =>   2
Atom   7H    basis set group =>   2
Atom   8C    basis set group =>   1
Atom   9C    basis set group =>   1
Atom  10H    basis set group =>   2
Atom  11H    basis set group =>   2
-------------------------------
AUXILIARY BASIS SET INFORMATION
-------------------------------
There are 2 groups of distinct atoms

 Group   1 Type C   : 12s5p4d2f1g contracted to 6s4p3d1f1g pattern {711111/2111/211/2/1}
 Group   2 Type H   : 5s2p1d contracted to 3s1p1d pattern {311/2/1}

Atom   0C    basis set group =>   1
Atom   1C    basis set group =>   1
Atom   2C    basis set group =>   1
Atom   3C    basis set group =>   1
Atom   4H    basis set group =>   2
Atom   5H    basis set group =>   2
Atom   6H    basis set group =>   2
Atom   7H    basis set group =>   2
Atom   8C    basis set group =>   1
Atom   9C    basis set group =>   1
Atom  10H    basis set group =>   2
Atom  11H    basis set group =>   2
------------------------------------------------------------------------------
                           ORCA GTO INTEGRAL CALCULATION
                           -- RI-GTO INTEGRALS CHOSEN --
------------------------------------------------------------------------------

                         BASIS SET STATISTICS AND STARTUP INFO

Gaussian basis set:
 # of primitive gaussian shells          ...  156
 # of primitive gaussian functions       ...  324
 # of contracted shells                  ...   90
 # of contracted basis functions         ...  222
 Highest angular momentum                ...    3
 Maximum contraction depth               ...    6
Auxiliary gaussian basis set:
 # of primitive gaussian shells          ...  192
 # of primitive gaussian functions       ...  516
 # of contracted shells                  ...  120
 # of contracted aux-basis functions     ...  360
 Highest angular momentum                ...    4
 Maximum contraction depth               ...    7
Ratio of auxiliary to basis functions    ...  1.62
Integral package used                  ... LIBINT
 One Electron integrals                  ... done
 Ordering auxiliary basis shells         ... done
 Integral threshhold             Thresh  ...  2.500e-11
 Primitive cut-off               TCut    ...  2.500e-12
 Pre-screening matrix                    ... done
 Shell pair data                         ... 
 Ordering of the shell pairs             ... done (   0.001 sec) 3637 of 4095 pairs
 Determination of significant pairs      ... done (   0.000 sec)
 Creation of shell pair data             ... done (   0.001 sec)
 Storage of shell pair data              ... done (   0.008 sec)
 Shell pair data done in (   0.010 sec)
 Computing two index integrals           ... done
 Cholesky decomposition of the V-matrix  ... done


Timings:
 Total evaluation time                   ...   0.261 sec (  0.004 min)
 One electron matrix time                ...   0.028 sec (  0.000 min) = 10.7%
 Schwartz matrix evaluation time         ...   0.178 sec (  0.003 min) = 68.2%
 Two index repulsion integral time       ...   0.012 sec (  0.000 min) =  4.6%
 Cholesky decomposition of V             ...   0.010 sec (  0.000 min) =  3.8%
 Three index repulsion integral time     ...   0.000 sec (  0.000 min) =  0.0%

-------------------------------------------------------------------------------
                                 ORCA SCF
-------------------------------------------------------------------------------

------------
SCF SETTINGS
------------
Hamiltonian:
 Density Functional     Method          .... DFT(GTOs)
 Exchange Functional    Exchange        .... PBE
   PBE kappa parameter   XKappa         ....  0.804000
   PBE mue parameter    XMuePBE         ....  0.219520
 Correlation Functional Correlation     .... PBE
   PBE beta parameter  CBetaPBE         ....  0.066725
 LDA part of GGA corr.  LDAOpt          .... PW91-LDA
 Gradients option       PostSCFGGA      .... off
   NL short-range parameter             ....  6.400000
 RI-approximation to the Coulomb term is turned on
   Number of auxiliary basis functions  .... 360


General Settings:
 Integral files         IntName         .... opt
 Hartree-Fock type      HFTyp           .... RHF
 Total Charge           Charge          ....    0
 Multiplicity           Mult            ....    1
 Number of Electrons    NEL             ....   42
 Basis Dimension        Dim             ....  222
 Nuclear Repulsion      ENuc            ....    140.0679924605 Eh

Convergence Acceleration:
 DIIS                   CNVDIIS         .... on
   Start iteration      DIISMaxIt       ....    12
   Startup error        DIISStart       ....  0.200000
   # of expansion vecs  DIISMaxEq       ....     5
   Bias factor          DIISBfac        ....   1.050
   Max. coefficient     DIISMaxC        ....  10.000
 Newton-Raphson         CNVNR           .... off
 SOSCF                  CNVSOSCF        .... on
   Start iteration      SOSCFMaxIt      ....   150
   Startup grad/error   SOSCFStart      ....  0.003300
 Level Shifting         CNVShift        .... on
   Level shift para.    LevelShift      ....    0.2500
   Turn off err/grad.   ShiftErr        ....    0.0010
 Zerner damping         CNVZerner       .... off
 Static damping         CNVDamp         .... on
   Fraction old density DampFac         ....    0.7000
   Max. Damping (<1)    DampMax         ....    0.9800
   Min. Damping (>=0)   DampMin         ....    0.0000
   Turn off err/grad.   DampErr         ....    0.1000
 Fernandez-Rico         CNVRico         .... off

SCF Procedure:
 Maximum # iterations   MaxIter         ....   125
 SCF integral mode      SCFMode         .... Direct
   Integral package                     .... LIBINT
 Reset frequeny         DirectResetFreq ....    20
 Integral Threshold     Thresh          ....  2.500e-11 Eh
 Primitive CutOff       TCut            ....  2.500e-12 Eh

Convergence Tolerance:
 Convergence Check Mode ConvCheckMode   .... Total+1el-Energy
 Convergence forced     ConvForced      .... 0
 Energy Change          TolE            ....  1.000e-08 Eh
 1-El. energy change                    ....  1.000e-05 Eh
 Orbital Gradient       TolG            ....  1.000e-05
 Orbital Rotation angle TolX            ....  1.000e-05
 DIIS Error             TolErr          ....  5.000e-07


Diagonalization of the overlap matrix:
Smallest eigenvalue                        ... 9.308e-04
Time for diagonalization                   ...    0.094 sec
Threshold for overlap eigenvalues          ... 1.000e-08
Number of eigenvalues below threshold      ... 0
Time for construction of square roots      ...    0.007 sec
Total time needed                          ...    0.101 sec

-------------------
DFT GRID GENERATION
-------------------

General Integration Accuracy     IntAcc      ...  4.340
Radial Grid Type                 RadialGrid  ... Gauss-Chebyshev
Angular Grid (max. acc.)         AngularGrid ... Lebedev-110
Angular grid pruning method      GridPruning ... 3 (G Style)
Weight generation scheme         WeightScheme... Becke
Basis function cutoff            BFCut       ...    1.0000e-11
Integration weight cutoff        WCut        ...    1.0000e-14
Grids for H and He will be reduced by one unit

# of grid points (after initial pruning)     ...  14700 (   0.0 sec)
# of grid points (after weights+screening)   ...  14070 (   0.0 sec)
nearest neighbour list constructed           ...    0.0 sec
Grid point re-assignment to atoms done       ...    0.0 sec
Grid point division into batches done        ...    0.0 sec
Reduced shell lists constructed in    0.3 sec

Total number of grid points                  ...    14070
Total number of batches                      ...      225
Average number of points per batch           ...       62
Average number of grid points per atom       ...     1172
Average number of shells per batch           ...    57.61 (64.01%)
Average number of basis functions per batch  ...   145.60 (65.59%)
Average number of large shells per batch     ...    43.81 (76.04%)
Average number of large basis fcns per batch ...   108.34 (74.41%)
Maximum spatial batch extension              ...  20.40, 17.83, 25.60 au
Average spatial batch extension              ...   4.23,  4.04,  5.60 au

Time for grid setup =    0.287 sec

------------------------------
INITIAL GUESS: MODEL POTENTIAL
------------------------------
Loading Hartree-Fock densities                     ... done
Calculating cut-offs                               ... done
Setting up the integral package                    ... done
Initializing the effective Hamiltonian             ... done
Starting the Coulomb interaction                   ... done (   0.2 sec)
Reading the grid                                   ... done
Mapping shells                                     ... done
Starting the XC term evaluation                    ... done (   0.3 sec)
  promolecular density results
     # of electrons  =     41.996531400
     EX              =    -31.713990707
     EC              =     -1.211439872
     EX+EC           =    -32.925430579
Transforming the Hamiltonian                       ... done (   0.0 sec)
Diagonalizing the Hamiltonian                      ... done (   0.0 sec)
Back transforming the eigenvectors                 ... done (   0.0 sec)
Now organizing SCF variables                       ... done
                      ------------------
                      INITIAL GUESS DONE (   0.9 sec)
                      ------------------
--------------
SCF ITERATIONS
--------------
ITER       Energy         Delta-E        Max-DP      RMS-DP      [F,P]     Damp
               ***  Starting incremental Fock matrix formation  ***
  0   -231.0393132154   0.000000000000 0.00864652  0.00031503  0.0464162 0.7000
  1   -231.0459591715  -0.006645956105 0.00764249  0.00027932  0.0236330 0.7000
                               ***Turning on DIIS***
  2   -231.0481504918  -0.002191320256 0.01864155  0.00064112  0.0148283 0.0000
  3   -231.0527254553  -0.004574963524 0.00750236  0.00023124  0.0135925 0.0000
  4   -231.0531458031  -0.000420347775 0.00513648  0.00008390  0.0128532 0.0000
  5   -231.0537038600  -0.000558056954 0.00153622  0.00003905  0.0044186 0.0000
  6   -231.0538196149  -0.000115754847 0.00110746  0.00002097  0.0045782 0.0000
                      *** Initiating the SOSCF procedure ***
                           *** Shutting down DIIS ***
                      *** Re-Reading the Fockian *** 
                      *** Removing any level shift *** 
ITER      Energy       Delta-E        Grad      Rot      Max-DP    RMS-DP
  7   -231.05386837  -0.0000487507  0.000208  0.000208  0.000361  0.000009
               *** Restarting incremental Fock matrix formation ***
  8   -231.05387478  -0.0000064184  0.000323  0.005496  0.002942  0.000051
  9   -231.05377071   0.0001040709  0.002696  0.004605  0.003069  0.000045
 10   -231.05386640  -0.0000956887  0.001162  0.014845  0.008404  0.000130
 11   -231.05295744   0.0009089658  0.009312  0.014313  0.007872  0.000120
 12   -231.05387059  -0.0009131578  0.000726  0.007508  0.006305  0.000086
 13   -231.05351562   0.0003549740  0.004897  0.006292  0.005916  0.000076
 14   -231.05386996  -0.0003543448  0.000644  0.007793  0.004704  0.000082
 15   -231.05356450   0.0003054695  0.004899  0.006428  0.004009  0.000071
 16   -231.05387672  -0.0003122298  0.000137  0.002004  0.001213  0.000018
 17   -231.05386268   0.0000140421  0.000974  0.001774  0.001047  0.000015
 18   -231.05387701  -0.0000143286  0.000028  0.000072  0.000073  0.000003
 19   -231.05387698   0.0000000354  0.000038  0.000041  0.000041  0.000002
                  ***Gradient check signals convergence***
              ***Rediagonalizing the Fockian in SOSCF/NRSCF***

               *****************************************************
               *                     SUCCESS                       *
               *           SCF CONVERGED AFTER  20 CYCLES          *
               *****************************************************

Setting up the final grid:

General Integration Accuracy     IntAcc      ...  4.670
Radial Grid Type                 RadialGrid  ... Gauss-Chebyshev
Angular Grid (max. acc.)         AngularGrid ... Lebedev-302
Angular grid pruning method      GridPruning ... 3 (G Style)
Weight generation scheme         WeightScheme... Becke
Basis function cutoff            BFCut       ...    1.0000e-11
Integration weight cutoff        WCut        ...    1.0000e-14
Grids for H and He will be reduced by one unit

# of grid points (after initial pruning)     ...  57636 (   0.0 sec)
# of grid points (after weights+screening)   ...  54787 (   0.1 sec)
nearest neighbour list constructed           ...    0.0 sec
Grid point re-assignment to atoms done       ...    0.0 sec
Grid point division into batches done        ...    0.2 sec
Reduced shell lists constructed in    1.1 sec

Total number of grid points                  ...    54787
Total number of batches                      ...      862
Average number of points per batch           ...       63
Average number of grid points per atom       ...     4566
Average number of shells per batch           ...    51.64 (57.38%)
Average number of basis functions per batch  ...   129.39 (58.28%)
Average number of large shells per batch     ...    38.67 (74.88%)
Average number of large basis fcns per batch ...    94.31 (72.88%)
Maximum spatial batch extension              ...  18.47, 18.57, 24.37 au
Average spatial batch extension              ...   2.78,  2.71,  3.10 au

Final grid set up in    1.2 sec
Final integration                            ... done (   3.0 sec)
Change in XC energy                          ...    -0.000723709
Integrated number of electrons               ...    41.999945677
Previous integrated no of electrons          ...    41.999185285

----------------
TOTAL SCF ENERGY
----------------

Total Energy       :         -231.05460077 Eh           -6287.31533 eV

Components:
Nuclear Repulsion  :          140.06799246 Eh            3811.44384 eV
Electronic Energy  :         -371.12259323 Eh          -10098.75917 eV
One Electron Energy:         -586.60779463 Eh          -15962.40961 eV
Two Electron Energy:          215.48520140 Eh            5863.65043 eV

Virial components:
Potential Energy   :         -458.78100001 Eh          -12484.06569 eV
Kinetic Energy     :          227.72639924 Eh            6196.75036 eV
Virial Ratio       :            2.01461491


DFT components:
N(Alpha)           :       20.999972838360 electrons
N(Beta)            :       20.999972838360 electrons
N(Total)           :       41.999945676720 electrons
E(X)               :      -31.943404074137 Eh       
E(C)               :       -1.231744030694 Eh       
E(XC)              :      -33.175148104832 Eh       

---------------
SCF CONVERGENCE
---------------

  Last Energy change         ...   -8.2003e-08  Tolerance :   1.0000e-08
  Last MAX-Density change    ...    1.1959e-06  Tolerance :   1.0000e-07
  Last RMS-Density change    ...    4.0110e-08  Tolerance :   5.0000e-09
  Last Orbital Gradient      ...    5.6010e-07  Tolerance :   1.0000e-05
  Last Orbital Rotation      ...    2.9715e-06  Tolerance :   1.0000e-05

             **** THE GBW FILE WAS UPDATED (opt.gbw) ****
             **** DENSITY FILE WAS UPDATED (opt.scfp.tmp) ****
             **** ENERGY FILE WAS UPDATED (opt.en.tmp) ****
----------------
ORBITAL ENERGIES
----------------

  NO   OCC          E(Eh)            E(eV) 
   0   2.0000     -10.001744      -272.1613 
   1   2.0000     -10.001600      -272.1574 
   2   2.0000      -9.998682      -272.0780 
   3   2.0000      -9.997692      -272.0510 
   4   2.0000      -9.994018      -271.9511 
   5   2.0000      -9.993946      -271.9491 
   6   2.0000      -0.620346       -16.8805 
   7   2.0000      -0.603727       -16.4282 
   8   2.0000      -0.587990       -16.0000 
   9   2.0000      -0.563340       -15.3293 
  10   2.0000      -0.548497       -14.9254 
  11   2.0000      -0.531645       -14.4668 
  12   2.0000      -0.369483       -10.0541 
  13   2.0000      -0.345940        -9.4135 
  14   2.0000      -0.326507        -8.8847 
  15   2.0000      -0.290236        -7.8977 
  16   2.0000      -0.280566        -7.6346 
  17   2.0000      -0.260336        -7.0841 
  18   2.0000      -0.218976        -5.9586 
  19   2.0000      -0.198156        -5.3921 
  20   2.0000      -0.184875        -5.0307 
  21   0.0000      -0.159749        -4.3470 
  22   0.0000      -0.146324        -3.9817 
  23   0.0000      -0.133452        -3.6314 
  24   0.0000      -0.128565        -3.4984 
  25   0.0000      -0.122267        -3.3270 
  26   0.0000      -0.102758        -2.7962 
  27   0.0000      -0.077338        -2.1045 
  28   0.0000      -0.012174        -0.3313 
  29   0.0000       0.040810         1.1105 
  30   0.0000       0.047660         1.2969 
  31   0.0000       0.062434         1.6989 
  32   0.0000       0.068522         1.8646 
  33   0.0000       0.084831         2.3084 
  34   0.0000       0.095577         2.6008 
  35   0.0000       0.106545         2.8992 
  36   0.0000       0.166453         4.5294 
  37   0.0000       0.184971         5.0333 
  38   0.0000       0.197426         5.3722 
  39   0.0000       0.202537         5.5113 
  40   0.0000       0.204777         5.5723 
  41   0.0000       0.212021         5.7694 
  42   0.0000       0.224125         6.0988 
  43   0.0000       0.228020         6.2048 
  44   0.0000       0.233819         6.3625 
  45   0.0000       0.234250         6.3743 
  46   0.0000       0.266339         7.2475 
  47   0.0000       0.267402         7.2764 
  48   0.0000       0.293669         7.9911 
  49   0.0000       0.297969         8.1082 
  50   0.0000       0.311687         8.4814 
  51   0.0000       0.326776         8.8920 
  52   0.0000       0.332527         9.0485 
  53   0.0000       0.371891        10.1197 
  54   0.0000       0.384702        10.4683 
  55   0.0000       0.403772        10.9872 
  56   0.0000       0.406677        11.0662 
  57   0.0000       0.412068        11.2130 
  58   0.0000       0.425012        11.5652 
  59   0.0000       0.436095        11.8668 
  60   0.0000       0.442362        12.0373 
  61   0.0000       0.492153        13.3922 
  62   0.0000       0.495139        13.4734 
  63   0.0000       0.496213        13.5027 
  64   0.0000       0.515862        14.0373 
  65   0.0000       0.550325        14.9751 
  66   0.0000       0.551246        15.0002 
  67   0.0000       0.566652        15.4194 
  68   0.0000       0.571274        15.5452 
  69   0.0000       0.579984        15.7822 
  70   0.0000       0.580887        15.8067 
  71   0.0000       0.617716        16.8089 
  72   0.0000       0.676467        18.4076 
  73   0.0000       0.700417        19.0593 
  74   0.0000       0.747120        20.3302 
  75   0.0000       0.753379        20.5005 
  76   0.0000       0.781050        21.2534 
  77   0.0000       0.784807        21.3557 
  78   0.0000       0.802482        21.8367 
  79   0.0000       0.803548        21.8657 
  80   0.0000       0.816457        22.2169 
  81   0.0000       0.817658        22.2496 
  82   0.0000       0.841492        22.8981 
  83   0.0000       0.852221        23.1901 
  84   0.0000       0.866621        23.5819 
  85   0.0000       0.917827        24.9753 
  86   0.0000       0.961364        26.1601 
  87   0.0000       0.981347        26.7038 
  88   0.0000       0.999585        27.2001 
  89   0.0000       1.008800        27.4509 
  90   0.0000       1.027521        27.9603 
  91   0.0000       1.045542        28.4506 
  92   0.0000       1.069117        29.0922 
  93   0.0000       1.096875        29.8475 
  94   0.0000       1.134433        30.8695 
  95   0.0000       1.196914        32.5697 
  96   0.0000       1.248993        33.9868 
  97   0.0000       1.251930        34.0667 
  98   0.0000       1.258604        34.2484 
  99   0.0000       1.270321        34.5672 
 100   0.0000       1.273604        34.6565 
 101   0.0000       1.315863        35.8064 
 102   0.0000       1.324489        36.0412 
 103   0.0000       1.325135        36.0588 
 104   0.0000       1.331959        36.2444 
 105   0.0000       1.393092        37.9080 
 106   0.0000       1.419670        38.6312 
 107   0.0000       1.421976        38.6939 
 108   0.0000       1.451270        39.4911 
 109   0.0000       1.479131        40.2492 
 110   0.0000       1.507637        41.0249 
 111   0.0000       1.514038        41.1991 
 112   0.0000       1.527488        41.5651 
 113   0.0000       1.570303        42.7301 
 114   0.0000       1.639772        44.6205 
 115   0.0000       1.670292        45.4510 
 116   0.0000       1.677773        45.6545 
 117   0.0000       1.693224        46.0750 
 118   0.0000       1.709087        46.5066 
 119   0.0000       1.721213        46.8366 
 120   0.0000       1.760502        47.9057 
 121   0.0000       1.768632        48.1269 
 122   0.0000       1.780241        48.4428 
 123   0.0000       1.809651        49.2431 
 124   0.0000       1.824217        49.6395 
 125   0.0000       1.852735        50.4155 
 126   0.0000       1.866481        50.7895 
 127   0.0000       1.868057        50.8324 
 128   0.0000       1.915448        52.1220 
 129   0.0000       1.926357        52.4188 
 130   0.0000       2.005975        54.5854 
 131   0.0000       2.066311        56.2272 
 132   0.0000       2.098007        57.0897 
 133   0.0000       2.110631        57.4332 
 134   0.0000       2.169559        59.0367 
 135   0.0000       2.258338        61.4525 
 136   0.0000       2.275191        61.9111 
 137   0.0000       2.359598        64.2079 
 138   0.0000       2.381042        64.7914 
 139   0.0000       2.390694        65.0541 
 140   0.0000       2.396291        65.2064 
 141   0.0000       2.405357        65.4531 
 142   0.0000       2.432935        66.2035 
 143   0.0000       2.453336        66.7587 
 144   0.0000       2.461910        66.9920 
 145   0.0000       2.475811        67.3702 
 146   0.0000       2.479697        67.4760 
 147   0.0000       2.481466        67.5241 
 148   0.0000       2.543916        69.2235 
 149   0.0000       2.544609        69.2423 
 150   0.0000       2.559938        69.6595 
 151   0.0000       2.585859        70.3648 
 152   0.0000       2.598918        70.7201 
 153   0.0000       2.621628        71.3381 
 154   0.0000       2.660647        72.3999 
 155   0.0000       2.677314        72.8534 
 156   0.0000       2.708550        73.7034 
 157   0.0000       2.717765        73.9541 
 158   0.0000       2.731627        74.3314 
 159   0.0000       2.779806        75.6424 
 160   0.0000       2.802682        76.2649 
 161   0.0000       2.826094        76.9019 
 162   0.0000       2.829121        76.9843 
 163   0.0000       2.847744        77.4911 
 164   0.0000       2.854581        77.6771 
 165   0.0000       2.869332        78.0785 
 166   0.0000       2.879465        78.3542 
 167   0.0000       2.889074        78.6157 
 168   0.0000       2.900568        78.9285 
 169   0.0000       2.926886        79.6446 
 170   0.0000       2.939413        79.9855 
 171   0.0000       2.944537        80.1249 
 172   0.0000       2.958515        80.5053 
 173   0.0000       2.984771        81.2197 
 174   0.0000       3.005504        81.7839 
 175   0.0000       3.025535        82.3290 
 176   0.0000       3.026789        82.3631 
 177   0.0000       3.052156        83.0534 
 178   0.0000       3.057563        83.2005 
 179   0.0000       3.075414        83.6863 
 180   0.0000       3.084211        83.9256 
 181   0.0000       3.094472        84.2049 
 182   0.0000       3.098157        84.3051 
 183   0.0000       3.106962        84.5447 
 184   0.0000       3.119103        84.8751 
 185   0.0000       3.137873        85.3859 
 186   0.0000       3.150608        85.7324 
 187   0.0000       3.152548        85.7852 
 188   0.0000       3.169739        86.2530 
 189   0.0000       3.172275        86.3220 
 190   0.0000       3.182049        86.5879 
 191   0.0000       3.194536        86.9277 
 192   0.0000       3.223103        87.7051 
 193   0.0000       3.276613        89.1612 
 194   0.0000       3.283670        89.3532 
 195   0.0000       3.334004        90.7229 
 196   0.0000       3.352995        91.2396 
 197   0.0000       3.353300        91.2479 
 198   0.0000       3.437328        93.5345 
 199   0.0000       3.481919        94.7478 
 200   0.0000       3.483391        94.7879 
 201   0.0000       3.520864        95.8076 
 202   0.0000       3.533646        96.1554 
 203   0.0000       3.563735        96.9742 
 204   0.0000       3.585076        97.5549 
 205   0.0000       3.602957        98.0414 
 206   0.0000       3.639614        99.0389 
 207   0.0000       3.698633       100.6449 
 208   0.0000       3.920342       106.6779 
 209   0.0000       4.048570       110.1672 
 210   0.0000       4.089120       111.2706 
 211   0.0000       4.129391       112.3664 
 212   0.0000       4.153021       113.0095 
 213   0.0000       4.187995       113.9611 
 214   0.0000       4.292449       116.8035 
 215   0.0000       4.391473       119.4981 
 216   0.0000      21.173551       576.1616 
 217   0.0000      21.323683       580.2469 
 218   0.0000      21.360676       581.2535 
 219   0.0000      21.505591       585.1969 
 220   0.0000      21.515338       585.4621 
 221   0.0000      21.652934       589.2063 

                    ********************************
                    * MULLIKEN POPULATION ANALYSIS *
                    ********************************

-----------------------
MULLIKEN ATOMIC CHARGES
-----------------------
   0 C :   -0.175589
   1 C :   -0.174258
   2 C :   -0.213785
   3 C :   -0.193538
   4 H :    0.194648
   5 H :    0.178183
   6 H :    0.185316
   7 H :    0.188918
   8 C :   -0.182546
   9 C :   -0.189953
  10 H :    0.195048
  11 H :    0.187555
Sum of atomic charges:   -0.0000000

--------------------------------
MULLIKEN REDUCED ORBITAL CHARGES
--------------------------------
  0 C s       :     3.491272  s :     3.491272
      pz      :     0.981885  p :     2.653831
      px      :     0.765504
      py      :     0.906442
      dz2     :     0.002927  d :     0.028481
      dxz     :     0.005902
      dyz     :    -0.000980
      dx2y2   :     0.013433
      dxy     :     0.007199
      f0      :     0.000330  f :     0.002004
      f+1     :     0.000306
      f-1     :     0.000481
      f+2     :     0.000001
      f-2     :     0.000151
      f+3     :     0.000247
      f-3     :     0.000488
  1 C s       :     3.462824  s :     3.462824
      pz      :     0.996335  p :     2.680327
      px      :     0.884306
      py      :     0.799686
      dz2     :     0.002765  d :     0.029016
      dxz     :    -0.000046
      dyz     :     0.004998
      dx2y2   :     0.010638
      dxy     :     0.010661
      f0      :     0.000353  f :     0.002091
      f+1     :     0.000499
      f-1     :     0.000317
      f+2     :     0.000062
      f-2     :     0.000102
      f+3     :     0.000213
      f-3     :     0.000545
  2 C s       :     3.593474  s :     3.593474
      pz      :     0.996732  p :     2.601986
      px      :     0.836856
      py      :     0.768398
      dz2     :     0.002215  d :     0.017245
      dxz     :     0.000838
      dyz     :     0.000141
      dx2y2   :     0.003949
      dxy     :     0.010103
      f0      :     0.000127  f :     0.001080
      f+1     :     0.000277
      f-1     :     0.000225
      f+2     :     0.000029
      f-2     :     0.000008
      f+3     :     0.000113
      f-3     :     0.000300
  3 C s       :     3.507588  s :     3.507588
      pz      :     0.989585  p :     2.657954
      px      :     0.753982
      py      :     0.914386
      dz2     :     0.002781  d :     0.026332
      dxz     :     0.004523
      dyz     :    -0.000903
      dx2y2   :     0.013705
      dxy     :     0.006226
      f0      :     0.000258  f :     0.001665
      f+1     :     0.000286
      f-1     :     0.000446
      f+2     :     0.000010
      f-2     :     0.000087
      f+3     :     0.000101
      f-3     :     0.000476
  4 H s       :     0.780909  s :     0.780909
      pz      :     0.006277  p :     0.024443
      px      :     0.003978
      py      :     0.014187
  5 H s       :     0.797066  s :     0.797066
      pz      :     0.006190  p :     0.024751
      px      :     0.012378
      py      :     0.006183
  6 H s       :     0.789982  s :     0.789982
      pz      :     0.006311  p :     0.024701
      px      :     0.010930
      py      :     0.007459
  7 H s       :     0.786718  s :     0.786718
      pz      :     0.006133  p :     0.024364
      px      :     0.004406
      py      :     0.013825
  8 C s       :     3.498268  s :     3.498268
      pz      :     0.989820  p :     2.657775
      px      :     0.859275
      py      :     0.808680
      dz2     :     0.002594  d :     0.024851
      dxz     :     0.000176
      dyz     :     0.003225
      dx2y2   :     0.007406
      dxy     :     0.011450
      f0      :     0.000255  f :     0.001652
      f+1     :     0.000422
      f-1     :     0.000276
      f+2     :     0.000083
      f-2     :     0.000021
      f+3     :     0.000163
      f-3     :     0.000433
  9 C s       :     3.572250  s :     3.572250
      pz      :     0.986095  p :     2.597256
      px      :     0.865805
      py      :     0.745356
      dz2     :     0.002285  d :     0.019325
      dxz     :     0.000561
      dyz     :     0.000920
      dx2y2   :     0.005743
      dxy     :     0.009816
      f0      :     0.000147  f :     0.001121
      f+1     :     0.000335
      f-1     :     0.000202
      f+2     :     0.000021
      f-2     :     0.000020
      f+3     :     0.000063
      f-3     :     0.000334
 10 H s       :     0.779889  s :     0.779889
      pz      :     0.006715  p :     0.025063
      px      :     0.010577
      py      :     0.007770
 11 H s       :     0.787571  s :     0.787571
      pz      :     0.006501  p :     0.024874
      px      :     0.012069
      py      :     0.006304


                     *******************************
                     * LOEWDIN POPULATION ANALYSIS *
                     *******************************

----------------------
LOEWDIN ATOMIC CHARGES
----------------------
   0 C :   -0.097410
   1 C :   -0.105221
   2 C :   -0.103577
   3 C :   -0.101591
   4 H :    0.102096
   5 H :    0.106708
   6 H :    0.102151
   7 H :    0.105124
   8 C :   -0.100745
   9 C :   -0.098397
  10 H :    0.095402
  11 H :    0.095461

-------------------------------
LOEWDIN REDUCED ORBITAL CHARGES
-------------------------------
  0 C s       :     3.169702  s :     3.169702
      pz      :     0.963011  p :     2.817925
      px      :     0.839415
      py      :     1.015499
      dz2     :     0.008328  d :     0.102393
      dxz     :     0.011271
      dyz     :     0.001995
      dx2y2   :     0.045402
      dxy     :     0.035397
      f0      :     0.000306  f :     0.007391
      f+1     :     0.000951
      f-1     :     0.002302
      f+2     :     0.000142
      f-2     :     0.000513
      f+3     :     0.001129
      f-3     :     0.002049
  1 C s       :     3.146585  s :     3.146585
      pz      :     0.974926  p :     2.841953
      px      :     1.000929
      py      :     0.866098
      dz2     :     0.008372  d :     0.109169
      dxz     :     0.005109
      dyz     :     0.009079
      dx2y2   :     0.039400
      dxy     :     0.047209
      f0      :     0.000318  f :     0.007514
      f+1     :     0.002493
      f-1     :     0.000946
      f+2     :     0.000131
      f-2     :     0.000559
      f+3     :     0.000943
      f-3     :     0.002124
  2 C s       :     3.306118  s :     3.306118
      pz      :     0.981264  p :     2.735794
      px      :     0.915754
      py      :     0.838776
      dz2     :     0.005010  d :     0.057545
      dxz     :     0.001645
      dyz     :     0.002184
      dx2y2   :     0.019851
      dxy     :     0.028855
      f0      :     0.000053  f :     0.004119
      f+1     :     0.001193
      f-1     :     0.000885
      f+2     :     0.000104
      f-2     :     0.000036
      f+3     :     0.000318
      f-3     :     0.001531
  3 C s       :     3.197239  s :     3.197239
      pz      :     0.971044  p :     2.806111
      px      :     0.823760
      py      :     1.011307
      dz2     :     0.007234  d :     0.092337
      dxz     :     0.010039
      dyz     :     0.000709
      dx2y2   :     0.045401
      dxy     :     0.028954
      f0      :     0.000185  f :     0.005904
      f+1     :     0.000893
      f-1     :     0.002011
      f+2     :     0.000203
      f-2     :     0.000238
      f+3     :     0.000500
      f-3     :     0.001875
  4 H s       :     0.820431  s :     0.820431
      pz      :     0.017551  p :     0.077473
      px      :     0.011256
      py      :     0.048666
  5 H s       :     0.816532  s :     0.816532
      pz      :     0.017400  p :     0.076759
      px      :     0.040058
      py      :     0.019301
  6 H s       :     0.820046  s :     0.820046
      pz      :     0.017766  p :     0.077803
      px      :     0.036277
      py      :     0.023760
  7 H s       :     0.818098  s :     0.818098
      pz      :     0.017225  p :     0.076779
      px      :     0.012984
      py      :     0.046570
  8 C s       :     3.193648  s :     3.193648
      pz      :     0.971068  p :     2.811063
      px      :     0.964355
      py      :     0.875640
      dz2     :     0.006886  d :     0.090204
      dxz     :     0.004498
      dyz     :     0.005742
      dx2y2   :     0.031458
      dxy     :     0.041620
      f0      :     0.000188  f :     0.005831
      f+1     :     0.001992
      f-1     :     0.000920
      f+2     :     0.000188
      f-2     :     0.000242
      f+3     :     0.000564
      f-3     :     0.001739
  9 C s       :     3.282156  s :     3.282156
      pz      :     0.970418  p :     2.746059
      px      :     0.961120
      py      :     0.814521
      dz2     :     0.005477  d :     0.065831
      dxz     :     0.001956
      dyz     :     0.003354
      dx2y2   :     0.023772
      dxy     :     0.031272
      f0      :     0.000072  f :     0.004352
      f+1     :     0.001530
      f-1     :     0.000700
      f+2     :     0.000109
      f-2     :     0.000081
      f+3     :     0.000168
      f-3     :     0.001691
 10 H s       :     0.824960  s :     0.824960
      pz      :     0.018821  p :     0.079638
      px      :     0.036029
      py      :     0.024788
 11 H s       :     0.825590  s :     0.825590
      pz      :     0.018258  p :     0.078949
      px      :     0.040984
      py      :     0.019707


                      *****************************
                      * MAYER POPULATION ANALYSIS *
                      *****************************

  NA   - Mulliken gross atomic population
  ZA   - Total nuclear charge
  QA   - Mulliken gross atomic charge
  VA   - Mayer's total valence
  BVA  - Mayer's bonded valence
  FA   - Mayer's free valence

  ATOM       NA         ZA         QA         VA         BVA        FA
  0 C      6.1756     6.0000    -0.1756     3.6936     3.6936    -0.0000
  1 C      6.1743     6.0000    -0.1743     3.7362     3.7362    -0.0000
  2 C      6.2138     6.0000    -0.2138     3.5508     3.5508    -0.0000
  3 C      6.1935     6.0000    -0.1935     3.6840     3.6840     0.0000
  4 H      0.8054     1.0000     0.1946     0.9172     0.9172     0.0000
  5 H      0.8218     1.0000     0.1782     0.9312     0.9312    -0.0000
  6 H      0.8147     1.0000     0.1853     0.9251     0.9251     0.0000
  7 H      0.8111     1.0000     0.1889     0.9202     0.9202    -0.0000
  8 C      6.1825     6.0000    -0.1825     3.6953     3.6953     0.0000
  9 C      6.1900     6.0000    -0.1900     3.5806     3.5806    -0.0000
 10 H      0.8050     1.0000     0.1950     0.9149     0.9149    -0.0000
 11 H      0.8124     1.0000     0.1876     0.9162     0.9162    -0.0000

  Mayer bond orders larger than 0.1
B(  0-C ,  1-C ) :   1.6645 B(  0-C ,  2-C ) :   0.9365 B(  0-C ,  7-H ) :   0.8571 
B(  1-C ,  5-H ) :   0.8684 B(  1-C ,  8-C ) :   0.9883 B(  2-C ,  8-C ) :   0.1263 
B(  2-C ,  9-C ) :   1.4735 B(  2-C , 10-H ) :   0.8324 B(  3-C ,  4-H ) :   0.8530 
B(  3-C ,  8-C ) :   1.5768 B(  3-C ,  9-C ) :   1.0157 B(  6-H ,  8-C ) :   0.8581 
B(  9-C , 11-H ) :   0.8381 

-------
TIMINGS
-------

Total SCF time: 0 days 0 hours 0 min 24 sec 

Total time                  ....      24.494 sec
Sum of individual times     ....      24.048 sec  ( 98.2%)

Fock matrix formation       ....      21.526 sec  ( 87.9%)
  Split-RI-J                ....      10.586 sec  ( 49.2% of F)
  XC integration            ....      10.195 sec  ( 47.4% of F)
    Basis function eval.    ....       3.518 sec  ( 34.5% of XC)
    Density eval.           ....       3.036 sec  ( 29.8% of XC)
    XC-Functional eval.     ....       0.424 sec  (  4.2% of XC)
    XC-Potential eval.      ....       2.806 sec  ( 27.5% of XC)
Diagonalization             ....       0.130 sec  (  0.5%)
Density matrix formation    ....       0.011 sec  (  0.0%)
Population analysis         ....       0.053 sec  (  0.2%)
Initial guess               ....       0.640 sec  (  2.6%)
Orbital Transformation      ....       0.000 sec  (  0.0%)
Orbital Orthonormalization  ....       0.000 sec  (  0.0%)
DIIS solution               ....       0.090 sec  (  0.4%)
SOSCF solution              ....       0.133 sec  (  0.5%)
Grid generation             ....       1.465 sec  (  6.0%)

-------------------------   --------------------
FINAL SINGLE POINT ENERGY      -231.054600766736
-------------------------   --------------------

------------------------------------------------------------------------------
                         ORCA SCF GRADIENT CALCULATION
------------------------------------------------------------------------------

Gradient of the Kohn-Sham DFT energy:
Kohn-Sham wavefunction type      ... RKS
Hartree-Fock exchange scaling    ...    0.000
Number of operators              ...    1
Number of atoms                  ...   12
Basis set dimensions             ...  222
Integral neglect threshold       ... 2.5e-11
Integral primitive cutoff        ... 2.5e-12

Nuclear repulsion gradient       ... done
One Electron Gradient            ... done
Pre-screening matrix             ... done
RI-J gradient                    ... done
Exchange-correlation gradient    ... done

------------------
CARTESIAN GRADIENT
------------------

   1   C   :    0.053504057    0.124367224    0.000000000
   2   C   :   -0.146076995    0.009397211   -0.000000000
   3   C   :    0.087943662    0.090016640   -0.000000000
   4   C   :    0.048789738   -0.117090551   -0.000000000
   5   H   :   -0.003507905    0.019865859    0.000000000
   6   H   :    0.017277617   -0.005911306    0.000000000
   7   H   :    0.016066996    0.010442039    0.000000000
   8   H   :   -0.001457554   -0.019927636   -0.000000000
   9   C   :   -0.133452280   -0.043633393    0.000000000
  10   C   :    0.099105036   -0.064289096    0.000000000
  11   H   :   -0.018581357   -0.014518363    0.000000000
  12   H   :   -0.019611014    0.011281371   -0.000000000

Difference to translation invariance:
           :    0.0000000000   -0.0000000000   -0.0000000000

Norm of the cartesian gradient     ...    0.3285231088
RMS gradient                       ...    0.0547538515
MAX gradient                       ...    0.1460769953

-------
TIMINGS
-------

Total SCF gradient time            ...        8.344 sec

One electron gradient       ....       0.180 sec  (  2.2%)
Prescreening matrices       ....       0.358 sec  (  4.3%)
RI-J Coulomb gradient       ....       1.510 sec  ( 18.1%)
XC gradient                 ....       6.104 sec  ( 73.1%)
------------------------------------------------------------------------------
                         ORCA GEOMETRY RELAXATION STEP
------------------------------------------------------------------------------

Reading the OPT-File                    .... done
Getting information on internals        .... done
Copying old internal coords+grads       .... done
Making the new internal coordinates     .... (new redundants).... done
Validating the new internal coordinates .... (new redundants).... done
Calculating the B-matrix                .... done
Calculating the G,G- and P matrices     .... done
Transforming gradient to internals      .... done
Projecting the internal gradient        .... done
Number of atoms                         ....  12
Number of internal coordinates          ....  76
Current Energy                          ....  -231.054600767 Eh
Current gradient norm                   ....     0.328523109 Eh/bohr
Maximum allowed component of the step   ....  0.300
Current trust radius                    ....  0.300
Evaluating the initial hessian          ....  (Almloef) done
Projecting the Hessian                  .... done
Forming the augmented Hessian           .... done
Diagonalizing the augmented Hessian     .... done
Last element of RFO vector              ....  0.746822110
Lowest eigenvalues of augmented Hessian:
 -0.230283792  0.001517451  0.001519981  0.001522212  0.001614053
Length of the computed step             ....  0.890471575
Warning: the length of the step is outside the trust region - taking restricted step instead
The input lambda is                     ....    -0.230284
   iter:   1  x=   -0.355457  g=    5.615738 f(x)=     0.702940
   iter:   2  x=   -0.513941  g=    1.850784 f(x)=     0.293320
   iter:   3  x=   -0.673586  g=    0.696412 f(x)=     0.111179
   iter:   4  x=   -0.774373  g=    0.333864 f(x)=     0.033649
   iter:   5  x=   -0.800010  g=    0.227330 f(x)=     0.005828
   iter:   6  x=   -0.801246  g=    0.207709 f(x)=     0.000257
   iter:   7  x=   -0.801248  g=    0.206822 f(x)=     0.000001
   iter:   8  x=   -0.801248  g=    0.206820 f(x)=     0.000000
   iter:   9  x=   -0.801248  g=    0.206820 f(x)=     0.000000
The output lambda is                    ....    -0.801248 (9 iterations)
The final length of the internal step   ....  0.300000000
Converting the step to cartesian space:
 Initial RMS(Int)=    0.0344123601
Transforming coordinates:
 Iter   0:  RMS(Cart)=    0.0618001575 RMS(Int)=    2.4969217295
 Iter   1:  RMS(Cart)=    0.0002154937 RMS(Int)=    0.0000958901
 Iter   2:  RMS(Cart)=    0.0000061410 RMS(Int)=    0.0000025521
 Iter   3:  RMS(Cart)=    0.0000002023 RMS(Int)=    0.0000000787
 Iter   4:  RMS(Cart)=    0.0000000065 RMS(Int)=    0.0000000026
done
Storing new coordinates                 .... done

                                .--------------------.
          ----------------------|Geometry convergence|-------------------------
          Item                value                   Tolerance       Converged
          ---------------------------------------------------------------------
          RMS gradient        0.0301909385            0.0001000000      NO
          MAX gradient        0.1482829535            0.0003000000      NO
          RMS step            0.0344123601            0.0020000000      NO
          MAX step            0.1621308305            0.0040000000      NO
          ........................................................
          Max(Bonds)      0.0858      Max(Angles)    1.02
          Max(Dihed)        0.00      Max(Improp)    0.00
          ---------------------------------------------------------------------

The optimization has not yet converged - more geometry cycles are needed


    ---------------------------------------------------------------------------
                         Redundant Internal Coordinates
                            (Angstroem and degrees)

        Definition                    Value    dE/dq     Step     New-Value
    ----------------------------------------------------------------------------
     1. B(C   1,C   0)                1.8535  0.148283 -0.0858    1.7677   
     2. B(C   2,C   0)                2.4287  0.076336 -0.0496    2.3791   
     3. B(H   4,C   3)                1.0700 -0.033555  0.0160    1.0860   
     4. B(H   5,C   1)                1.0700 -0.030453  0.0145    1.0845   
     5. B(H   7,C   0)                1.0700 -0.019476  0.0087    1.0787   
     6. B(C   8,H   6)                1.0700 -0.019160  0.0085    1.0785   
     7. B(C   8,C   3)                1.9963  0.131686 -0.0802    1.9161   
     8. B(C   8,H   5)                2.9526  0.022589 -0.0168    2.9358   
     9. B(C   8,C   1)                2.2820  0.060819 -0.0373    2.2447   
    10. B(C   9,C   2)                2.3265  0.099293 -0.0639    2.2626   
    11. B(C   9,H   4)                2.9430  0.022857 -0.0172    2.9259   
    12. B(C   9,C   3)                2.2889  0.066158 -0.0405    2.2483   
    13. B(H  10,C   2)                1.0700 -0.023579  0.0105    1.0805   
    14. B(H  11,C   9)                1.0700 -0.022620  0.0101    1.0801   
    15. A(C   2,C   0,H   7)          116.81  0.003703   -0.21    116.60   
    16. A(C   1,C   0,C   2)          126.37  0.001622   -0.07    126.30   
    17. A(C   1,C   0,H   7)          116.81 -0.005325    0.28    117.10   
    18. A(H   5,C   1,C   8)          118.97 -0.009257    0.63    119.60   
    19. A(C   0,C   1,H   5)          118.97  0.012990   -0.77    118.20   
    20. A(C   0,C   1,C   8)          122.06 -0.003733    0.15    122.20   
    21. A(C   9,C   2,H  10)          124.63  0.000222   -0.03    124.60   
    22. A(C   0,C   2,C   9)          110.74 -0.001039    0.09    110.83   
    23. A(C   0,C   2,H  10)          124.63  0.000817   -0.06    124.57   
    24. A(C   8,C   3,C   9)          124.58  0.005714   -0.37    124.21   
    25. A(H   4,C   3,C   9)          117.71 -0.011095    0.75    118.46   
    26. A(H   4,C   3,C   8)          117.71  0.005381   -0.38    117.33   
    27. A(C   3,H   4,C   9)           43.51  0.016153   -1.02     42.49   
    28. A(C   1,H   5,C   8)           42.55  0.013932   -0.88     41.67   
    29. A(C   1,C   8,C   3)          119.06 -0.006832    0.43    119.49   
    30. A(C   1,C   8,H   5)           18.48 -0.004675    0.25     18.74   
    31. A(H   5,C   8,H   6)          101.99  0.005605   -0.34    101.65   
    32. A(C   3,C   8,H   5)          137.54 -0.011507    0.68    138.22   
    33. A(C   1,C   8,H   6)          120.47  0.000931   -0.08    120.39   
    34. A(C   3,C   8,H   6)          120.47  0.005902   -0.34    120.13   
    35. A(C   3,C   9,H  11)          121.41 -0.002800    0.14    121.55   
    36. A(C   2,C   9,H   4)          135.96 -0.000789    0.06    136.02   
    37. A(C   2,C   9,C   3)          117.19  0.004269   -0.21    116.97   
    38. A(C   2,C   9,H  11)          121.41 -0.001469    0.07    121.48   
    39. A(C   3,C   9,H   4)           18.78 -0.005058    0.27     19.05   
    40. A(H   4,C   9,H  11)          102.63  0.002258   -0.13    102.50   
    41. D(H   5,C   1,C   0,C   2)    180.00  0.000000   -0.00    180.00   
    42. D(C   8,C   1,C   0,C   2)      0.00  0.000000   -0.00     -0.00   
    43. D(C   8,C   1,C   0,H   7)    180.00 -0.000000    0.00    180.00   
    44. D(H   5,C   1,C   0,H   7)      0.00 -0.000000    0.00      0.00   
    45. D(C   9,C   2,C   0,C   1)      0.00 -0.000000    0.00      0.00   
    46. D(H  10,C   2,C   0,H   7)      0.00  0.000000   -0.00     -0.00   
    47. D(H  10,C   2,C   0,C   1)    180.00  0.000000   -0.00    180.00   
    48. D(C   9,C   2,C   0,H   7)    180.00 -0.000000    0.00    180.00   
    49. D(C   9,H   4,C   3,C   8)    180.00  0.000000   -0.00    180.00   
    50. D(C   8,H   5,C   1,C   0)    180.00  0.000000   -0.00    180.00   
    51. D(H   6,C   8,C   1,C   0)    180.00 -0.000000    0.00    180.00   
    52. D(H   5,C   8,C   1,C   0)    180.00 -0.000000    0.00    180.00   
    53. D(H   6,C   8,C   1,H   5)      0.00 -0.000000    0.00      0.00   
    54. D(C   3,C   8,C   1,H   5)    180.00  0.000000   -0.00    180.00   
    55. D(C   3,C   8,C   1,C   0)      0.00  0.000000   -0.00     -0.00   
    56. D(H   5,C   8,C   3,C   9)      0.00 -0.000000    0.00      0.00   
    57. D(H   5,C   8,C   3,H   4)    180.00 -0.000000    0.00    180.00   
    58. D(C   1,C   8,C   3,C   9)      0.00  0.000000   -0.00     -0.00   
    59. D(C   1,C   8,C   3,H   4)    180.00 -0.000000    0.00    180.00   
    60. D(H   6,C   8,C   3,C   9)    180.00  0.000000   -0.00    180.00   
    61. D(C   3,C   8,H   5,C   1)      0.00  0.000000   -0.00     -0.00   
    62. D(H   6,C   8,H   5,C   1)    180.00 -0.000000    0.00    180.00   
    63. D(H   6,C   8,C   3,H   4)      0.00 -0.000000    0.00      0.00   
    64. D(H  11,C   9,C   3,H   4)      0.00  0.000000   -0.00     -0.00   
    65. D(H   4,C   9,C   2,C   0)      0.00  0.000000   -0.00     -0.00   
    66. D(H   4,C   9,C   2,H  10)    180.00 -0.000000    0.00    180.00   
    67. D(C   3,C   9,C   2,C   0)      0.00  0.000000   -0.00     -0.00   
    68. D(C   3,C   9,C   2,H  10)    180.00 -0.000000    0.00    180.00   
    69. D(H  11,C   9,C   2,C   0)    180.00  0.000000   -0.00    180.00   
    70. D(H  11,C   9,C   3,C   8)    180.00 -0.000000    0.00    180.00   
    71. D(H  11,C   9,C   2,H  10)      0.00 -0.000000    0.00      0.00   
    72. D(C   2,C   9,H   4,C   3)      0.00 -0.000000    0.00      0.00   
    73. D(H  11,C   9,H   4,C   3)    180.00  0.000000   -0.00    180.00   
    74. D(C   2,C   9,C   3,C   8)      0.00 -0.000000    0.00      0.00   
    75. D(C   2,C   9,C   3,H   4)    180.00 -0.000000    0.00    180.00   
    76. D(H   4,C   9,C   3,C   8)    180.00 -0.000000    0.00    180.00   
    ----------------------------------------------------------------------------

         *************************************************************
         *                GEOMETRY OPTIMIZATION CYCLE   2            *
         *************************************************************
---------------------------------
CARTESIAN COORDINATES (ANGSTROEM)
---------------------------------
  C     -2.840586    2.790016   -0.000000
  C     -4.275241    1.757164   -0.000000
  C     -0.577262    2.056929    0.000000
  C     -2.413670   -1.321673    0.000000
  H     -2.387360   -2.407311   -0.000000
  H     -5.249575    2.233472   -0.000000
  H     -5.031547   -1.085223    0.000000
  H     -3.002891    3.856402   -0.000000
  C     -4.136637   -0.483249    0.000000
  C     -0.463597   -0.202744   -0.000000
  H      0.280152    2.714447    0.000000
  H      0.484635   -0.719848   -0.000000

----------------------------
CARTESIAN COORDINATES (A.U.)
----------------------------
  NO LB      ZA    FRAG     MASS         X           Y           Z
   0 C     6.0000    0    12.011   -5.367930    5.272366   -0.000000
   1 C     6.0000    0    12.011   -8.079035    3.320558   -0.000000
   2 C     6.0000    0    12.011   -1.090867    3.887032    0.000000
   3 C     6.0000    0    12.011   -4.561175   -2.497601    0.000000
   4 H     1.0000    0     1.008   -4.511457   -4.549159   -0.000000
   5 H     1.0000    0     1.008   -9.920259    4.220650   -0.000000
   6 H     1.0000    0     1.008   -9.508246   -2.050774    0.000000
   7 H     1.0000    0     1.008   -5.674642    7.287544   -0.000000
   8 C     6.0000    0    12.011   -7.817111   -0.913208    0.000000
   9 C     6.0000    0    12.011   -0.876071   -0.383131   -0.000000
  10 H     1.0000    0     1.008    0.529410    5.129561    0.000000
  11 H     1.0000    0     1.008    0.915828   -1.360315   -0.000000

--------------------------------
INTERNAL COORDINATES (ANGSTROEM)
--------------------------------
 C      0   0   0     0.000000000000     0.00000000     0.00000000
 C      1   0   0     1.767772071608     0.00000000     0.00000000
 C      1   2   0     2.379086625798   126.30167484     0.00000000
 C      2   1   3     3.597872346361    94.59266455     0.00000000
 H      4   2   1     1.085956485814   150.22963338   180.00000085
 H      2   1   3     1.084525747111   118.19679292   180.00000000
 H      4   2   1     2.628534132552    53.68035338   180.00000085
 H      1   2   3     1.078667059414   117.09720871   180.00000000
 C      7   4   2     1.078534293628    39.08833493     0.00000000
 C      4   2   1     2.248285256888    91.31190427     0.00000000
 H      3   1   2     1.080503462532   124.56971906   180.00000000
 H     10   4   2     1.080064804109   121.54813487   180.00000085

---------------------------
INTERNAL COORDINATES (A.U.)
---------------------------
 C      0   0   0     0.000000000000     0.00000000     0.00000000
 C      1   0   0     3.340605082535     0.00000000     0.00000000
 C      1   2   0     4.495822171633   126.30167484     0.00000000
 C      2   1   3     6.798993399431    94.59266455     0.00000000
 H      4   2   1     2.052160351544   150.22963338   180.00000085
 H      2   1   3     2.049456647225   118.19679292   180.00000000
 H      4   2   1     4.967209644187    53.68035338   180.00000085
 H      1   2   3     2.038385331974   117.09720871   180.00000000
 C      7   4   2     2.038134441000    39.08833493     0.00000000
 C      4   2   1     4.248643406451    91.31190427     0.00000000
 H      3   1   2     2.041855630939   124.56971906   180.00000000
 H     10   4   2     2.041026686654   121.54813487   180.00000085

 One Electron integrals                  ... done
 Pre-screening matrix                    ... done

Diagonalization of the overlap matrix:
Smallest eigenvalue                        ... 7.266e-04
Time for diagonalization                   ...    0.011 sec
Threshold for overlap eigenvalues          ... 1.000e-08
Number of eigenvalues below threshold      ... 0
Time for construction of square roots      ...    0.006 sec
Total time needed                          ...    0.018 sec

-------------------
DFT GRID GENERATION
-------------------

General Integration Accuracy     IntAcc      ...  4.340
Radial Grid Type                 RadialGrid  ... Gauss-Chebyshev
Angular Grid (max. acc.)         AngularGrid ... Lebedev-110
Angular grid pruning method      GridPruning ... 3 (G Style)
Weight generation scheme         WeightScheme... Becke
Basis function cutoff            BFCut       ...    1.0000e-11
Integration weight cutoff        WCut        ...    1.0000e-14
Grids for H and He will be reduced by one unit

# of grid points (after initial pruning)     ...  14700 (   0.0 sec)
# of grid points (after weights+screening)   ...  14051 (   0.0 sec)
nearest neighbour list constructed           ...    0.0 sec
Grid point re-assignment to atoms done       ...    0.0 sec
Grid point division into batches done        ...    0.0 sec
Reduced shell lists constructed in    0.4 sec

Total number of grid points                  ...    14051
Total number of batches                      ...      227
Average number of points per batch           ...       61
Average number of grid points per atom       ...     1171
Average number of shells per batch           ...    58.40 (64.89%)
Average number of basis functions per batch  ...   148.24 (66.78%)
Average number of large shells per batch     ...    44.81 (76.73%)
Average number of large basis fcns per batch ...   111.44 (75.18%)
Maximum spatial batch extension              ...  20.02, 17.79, 40.11 au
Average spatial batch extension              ...   4.29,  4.06,  5.65 au

Time for grid setup =    0.426 sec

--------------
SCF ITERATIONS
--------------
ITER       Energy         Delta-E        Max-DP      RMS-DP      [F,P]     Damp
               ***  Starting incremental Fock matrix formation  ***
  0   -231.1322139173   0.000000000000 0.00228292  0.00006274  0.0111402 0.7000
                      *** Initiating the SOSCF procedure ***
                      *** Re-Reading the Fockian *** 
                      *** Removing any level shift *** 
ITER      Energy       Delta-E        Grad      Rot      Max-DP    RMS-DP
  1   -231.13271870  -0.0005047778  0.001690  0.001690  0.006501  0.000211
               *** Restarting incremental Fock matrix formation ***
  2   -231.13395696  -0.0012382697  0.001531  0.017326  0.003539  0.000144
  3   -231.13367074   0.0002862288  0.005238  0.017662  0.005614  0.000131
  4   -231.13388875  -0.0002180101  0.003600  0.037060  0.015353  0.000246
  5   -231.13155896   0.0023297831  0.019562  0.032955  0.017304  0.000242
  6   -231.13353525  -0.0019762870  0.003345  0.038646  0.024220  0.000470
  7   -231.12595508   0.0075801690  0.022051  0.026671  0.028436  0.000380
  8   -231.13311521  -0.0071601281  0.005330  0.039563  0.024710  0.000673
  9   -231.12146090   0.0116543046  0.027005  0.034763  0.024227  0.000505
 10   -231.13282733  -0.0113664281  0.006203  0.046428  0.018703  0.000738
 11   -231.12539731   0.0074300268  0.012706  0.039050  0.014926  0.000556
 12   -231.13382169  -0.0084243842  0.004163  0.049321  0.023826  0.000449
 13   -231.12609051   0.0077311791  0.023011  0.041492  0.020244  0.000387
 14   -231.13406576  -0.0079752480  0.000141  0.001665  0.000809  0.000014
 15   -231.13406715  -0.0000013936  0.000063  0.000145  0.000080  0.000002
 16   -231.13406725  -0.0000000995  0.000025  0.000110  0.000051  0.000001
 17   -231.13406728  -0.0000000274  0.000003  0.000035  0.000012  0.000000
                 **** Energy Check signals convergence ****
              ***Rediagonalizing the Fockian in SOSCF/NRSCF***

               *****************************************************
               *                     SUCCESS                       *
               *           SCF CONVERGED AFTER  18 CYCLES          *
               *****************************************************

Setting up the final grid:

General Integration Accuracy     IntAcc      ...  4.670
Radial Grid Type                 RadialGrid  ... Gauss-Chebyshev
Angular Grid (max. acc.)         AngularGrid ... Lebedev-302
Angular grid pruning method      GridPruning ... 3 (G Style)
Weight generation scheme         WeightScheme... Becke
Basis function cutoff            BFCut       ...    1.0000e-11
Integration weight cutoff        WCut        ...    1.0000e-14
Grids for H and He will be reduced by one unit

# of grid points (after initial pruning)     ...  57636 (   0.0 sec)
# of grid points (after weights+screening)   ...  54703 (   0.1 sec)
nearest neighbour list constructed           ...    0.0 sec
Grid point re-assignment to atoms done       ...    0.0 sec
Grid point division into batches done        ...    0.2 sec
Reduced shell lists constructed in    1.1 sec

Total number of grid points                  ...    54703
Total number of batches                      ...      859
Average number of points per batch           ...       63
Average number of grid points per atom       ...     4559
Average number of shells per batch           ...    52.33 (58.14%)
Average number of basis functions per batch  ...   131.43 (59.20%)
Average number of large shells per batch     ...    39.38 (75.25%)
Average number of large basis fcns per batch ...    96.33 (73.29%)
Maximum spatial batch extension              ...  18.40, 18.61, 24.37 au
Average spatial batch extension              ...   2.75,  2.71,  3.11 au

Final grid set up in    1.2 sec
Final integration                            ... done (   1.3 sec)
Change in XC energy                          ...    -0.000728040
Integrated number of electrons               ...    41.999942661
Previous integrated no of electrons          ...    41.999141380
Total Energy       :         -231.13479532 Eh           -6289.49753 eV
  Last Energy change         ...    1.5377e-09  Tolerance :   1.0000e-08
  Last MAX-Density change    ...    2.7094e-06  Tolerance :   1.0000e-07
             **** THE GBW FILE WAS UPDATED (opt.gbw) ****
             **** DENSITY FILE WAS UPDATED (opt.scfp.tmp) ****
             **** ENERGY FILE WAS UPDATED (opt.en.tmp) ****
Total SCF time: 0 days 0 hours 0 min 54 sec 

-------------------------   --------------------
FINAL SINGLE POINT ENERGY      -231.134795317698
-------------------------   --------------------

------------------------------------------------------------------------------
                         ORCA SCF GRADIENT CALCULATION
------------------------------------------------------------------------------

Gradient of the Kohn-Sham DFT energy:
Kohn-Sham wavefunction type      ... RKS
Hartree-Fock exchange scaling    ...    0.000
Number of operators              ...    1
Number of atoms                  ...   12
Basis set dimensions             ...  222
Integral neglect threshold       ... 2.5e-11
Integral primitive cutoff        ... 2.5e-12

Nuclear repulsion gradient       ... done
One Electron Gradient            ... done
Pre-screening matrix             ... done
RI-J gradient                    ... done
Exchange-correlation gradient    ... done

------------------
CARTESIAN GRADIENT
------------------

   1   C   :    0.056871321    0.122094507    0.000000000
   2   C   :   -0.141918358    0.001226017    0.000000000
   3   C   :    0.084144647    0.092217204   -0.000000000
   4   C   :    0.054512496   -0.111336323   -0.000000000
   5   H   :   -0.003871875    0.007576645   -0.000000000
   6   H   :    0.007729908    0.000150773    0.000000000
   7   H   :    0.010484304    0.005710885   -0.000000000
   8   H   :   -0.003386958   -0.012752852   -0.000000000
   9   C   :   -0.135448285   -0.036080264    0.000000000
  10   C   :    0.094876544   -0.067071957   -0.000000000
  11   H   :   -0.011772492   -0.009104356    0.000000000
  12   H   :   -0.012221252    0.007369721    0.000000000

Difference to translation invariance:
           :    0.0000000000   -0.0000000000   -0.0000000000

Norm of the cartesian gradient     ...    0.3213372959
RMS gradient                       ...    0.0535562160
MAX gradient                       ...    0.1419183584

-------
TIMINGS
-------

Total SCF gradient time            ...        6.775 sec

One electron gradient       ....       0.178 sec  (  2.6%)
Prescreening matrices       ....       0.381 sec  (  5.6%)
RI-J Coulomb gradient       ....       1.520 sec  ( 22.4%)
XC gradient                 ....       4.512 sec  ( 66.6%)
------------------------------------------------------------------------------
                         ORCA GEOMETRY RELAXATION STEP
------------------------------------------------------------------------------

Reading the OPT-File                    .... done
Getting information on internals        .... done
Copying old internal coords+grads       .... done
Making the new internal coordinates     .... (new redundants).... done
Validating the new internal coordinates .... (new redundants).... done
Calculating the B-matrix                .... done
Calculating the G,G- and P matrices     .... done
Transforming gradient to internals      .... done
Projecting the internal gradient        .... done
Number of atoms                         ....  12
[...]
 102   0.0000       1.599144        43.5149 
 103   0.0000       1.600661        43.5562 
 104   0.0000       1.602221        43.5987 
 105   0.0000       1.607946        43.7544 
 106   0.0000       1.622517        44.1509 
 107   0.0000       1.624644        44.2088 
 108   0.0000       1.633022        44.4368 
 109   0.0000       1.634466        44.4761 
 110   0.0000       1.689338        45.9692 
 111   0.0000       1.774287        48.2808 
 112   0.0000       1.828856        49.7657 
 113   0.0000       1.829363        49.7795 
 114   0.0000       1.954619        53.1879 
 115   0.0000       1.955195        53.2036 
 116   0.0000       1.997773        54.3622 
 117   0.0000       1.998869        54.3920 
 118   0.0000       2.009747        54.6880 
 119   0.0000       2.010499        54.7085 
 120   0.0000       2.076620        56.5077 
 121   0.0000       2.077850        56.5412 
 122   0.0000       2.146416        58.4069 
 123   0.0000       2.158742        58.7423 
 124   0.0000       2.159123        58.7527 
 125   0.0000       2.238663        60.9171 
 126   0.0000       2.374401        64.6107 
 127   0.0000       2.414548        65.7032 
 128   0.0000       2.416685        65.7613 
 129   0.0000       2.472575        67.2822 
 130   0.0000       2.474378        67.3313 
 131   0.0000       2.474723        67.3406 
 132   0.0000       2.485108        67.6232 
 133   0.0000       2.503219        68.1161 
 134   0.0000       2.562619        69.7324 
 135   0.0000       2.563914        69.7676 
 136   0.0000       2.587232        70.4022 
 137   0.0000       2.587443        70.4079 
 138   0.0000       2.588148        70.4271 
 139   0.0000       2.590263        70.4846 
 140   0.0000       2.590714        70.4969 
 141   0.0000       2.661747        72.4298 
 142   0.0000       2.667367        72.5827 
 143   0.0000       2.670354        72.6640 
 144   0.0000       2.718189        73.9657 
 145   0.0000       2.722823        74.0918 
 146   0.0000       2.725066        74.1528 
 147   0.0000       2.759223        75.0823 
 148   0.0000       2.759747        75.0965 
 149   0.0000       2.760537        75.1180 
 150   0.0000       2.767747        75.3142 
 151   0.0000       2.770239        75.3820 
 152   0.0000       2.820606        76.7526 
 153   0.0000       2.924372        79.5762 
 154   0.0000       3.020646        82.1960 
 155   0.0000       3.022015        82.2332 
 156   0.0000       3.027956        82.3949 
 157   0.0000       3.028190        82.4012 
 158   0.0000       3.044356        82.8411 
 159   0.0000       3.044968        82.8578 
 160   0.0000       3.054860        83.1270 
 161   0.0000       3.055659        83.1487 
 162   0.0000       3.104878        84.4880 
 163   0.0000       3.127201        85.0955 
 164   0.0000       3.128483        85.1303 
 165   0.0000       3.160072        85.9899 
 166   0.0000       3.164284        86.1045 
 167   0.0000       3.165032        86.1249 
 168   0.0000       3.229093        87.8681 
 169   0.0000       3.266473        88.8853 
 170   0.0000       3.277260        89.1788 
 171   0.0000       3.277471        89.1845 
 172   0.0000       3.310796        90.0914 
 173   0.0000       3.357427        91.3602 
 174   0.0000       3.363315        91.5205 
 175   0.0000       3.364435        91.5509 
 176   0.0000       3.409996        92.7907 
 177   0.0000       3.427086        93.2557 
 178   0.0000       3.427595        93.2696 
 179   0.0000       3.501428        95.2787 
 180   0.0000       3.560669        96.8907 
 181   0.0000       3.564642        96.9988 
 182   0.0000       3.654133        99.4340 
 183   0.0000       3.656887        99.5090 
 184   0.0000       3.657898        99.5365 
 185   0.0000       3.700781       100.7034 
 186   0.0000       3.775639       102.7404 
 187   0.0000       3.895683       106.0069 
 188   0.0000       3.897077       106.0448 
 189   0.0000       3.959749       107.7503 
 190   0.0000       3.964184       107.8709 
 191   0.0000       3.965775       107.9142 
 192   0.0000       4.009468       109.1032 
 193   0.0000       4.095779       111.4518 
 194   0.0000       4.098140       111.5160 
 195   0.0000       4.100086       111.5690 
 196   0.0000       4.119359       112.0935 
 197   0.0000       4.120715       112.1304 
 198   0.0000       4.172079       113.5280 
 199   0.0000       4.173383       113.5635 
 200   0.0000       4.186658       113.9248 
 201   0.0000       4.187263       113.9412 
 202   0.0000       4.517990       122.9408 
 203   0.0000       4.550270       123.8192 
 204   0.0000       4.551262       123.8461 
 205   0.0000       4.551566       123.8544 
 206   0.0000       4.714185       128.2795 
 207   0.0000       4.715365       128.3116 
 208   0.0000       4.784311       130.1877 
 209   0.0000       4.785338       130.2157 
 210   0.0000       5.073536       138.0579 
 211   0.0000       5.073736       138.0634 
 212   0.0000       5.171326       140.7189 
 213   0.0000       5.190735       141.2471 
 214   0.0000       5.301144       144.2515 
 215   0.0000       5.521723       150.2537 
 216   0.0000      21.606124       587.9325 
 217   0.0000      22.247438       605.3836 
 218   0.0000      22.248044       605.4000 
 219   0.0000      22.338422       607.8594 
 220   0.0000      22.339207       607.8807 
 221   0.0000      22.748390       619.0152 

                    ********************************
                    * MULLIKEN POPULATION ANALYSIS *
                    ********************************

-----------------------
MULLIKEN ATOMIC CHARGES
-----------------------
   0 C :   -0.137081
   1 C :   -0.098076
   2 C :   -0.092600
   3 C :   -0.136991
   4 H :    0.116984
   5 H :    0.108637
   6 H :    0.102202
   7 H :    0.116963
   8 C :   -0.092651
   9 C :   -0.098267
  10 H :    0.102200
  11 H :    0.108680
Sum of atomic charges:   -0.0000000

--------------------------------
MULLIKEN REDUCED ORBITAL CHARGES
--------------------------------
  0 C s       :     3.247836  s :     3.247836
      pz      :     0.970029  p :     2.792862
      px      :     0.895149
      py      :     0.927684
      dz2     :     0.006006  d :     0.089401
      dxz     :     0.022285
      dyz     :     0.004626
      dx2y2   :     0.037759
      dxy     :     0.018726
      f0      :     0.001502  f :     0.006982
      f+1     :     0.000415
      f-1     :     0.000614
      f+2     :     0.000195
      f-2     :     0.001135
      f+3     :     0.002164
      f-3     :     0.000955
  1 C s       :     3.160864  s :     3.160864
      pz      :     0.964174  p :     2.845133
      px      :     0.954756
      py      :     0.926203
      dz2     :     0.003789  d :     0.085228
      dxz     :     0.007758
      dyz     :     0.018755
      dx2y2   :     0.025982
      dxy     :     0.028944
      f0      :     0.001491  f :     0.006850
      f+1     :     0.000606
      f-1     :     0.000481
      f+2     :     0.000747
      f-2     :     0.000555
      f+3     :     0.002120
      f-3     :     0.000850
  2 C s       :     3.196566  s :     3.196566
      pz      :     0.963134  p :     2.804951
      px      :     0.931850
      py      :     0.909967
      dz2     :     0.004471  d :     0.084352
      dxz     :     0.009822
      dyz     :     0.016175
      dx2y2   :     0.020587
      dxy     :     0.033297
      f0      :     0.001474  f :     0.006731
      f+1     :     0.000568
      f-1     :     0.000438
      f+2     :     0.000993
      f-2     :     0.000284
      f+3     :     0.002062
      f-3     :     0.000912
  3 C s       :     3.247659  s :     3.247659
      pz      :     0.970000  p :     2.792913
      px      :     0.895225
      py      :     0.927689
      dz2     :     0.006008  d :     0.089436
      dxz     :     0.022293
      dyz     :     0.004628
      dx2y2   :     0.037770
      dxy     :     0.018738
      f0      :     0.001503  f :     0.006983
      f+1     :     0.000415
      f-1     :     0.000614
      f+2     :     0.000195
      f-2     :     0.001135
      f+3     :     0.002164
      f-3     :     0.000956
  4 H s       :     0.861712  s :     0.861712
      pz      :     0.004948  p :     0.021304
      px      :     0.003799
      py      :     0.012557
  5 H s       :     0.869459  s :     0.869459
      pz      :     0.004959  p :     0.021903
      px      :     0.011410
      py      :     0.005534
  6 H s       :     0.875972  s :     0.875972
      pz      :     0.004952  p :     0.021826
      px      :     0.010019
      py      :     0.006855
  7 H s       :     0.861733  s :     0.861733
      pz      :     0.004948  p :     0.021304
      px      :     0.003801
      py      :     0.012555
  8 C s       :     3.196433  s :     3.196433
      pz      :     0.963162  p :     2.805107
      px      :     0.931979
      py      :     0.909965
      dz2     :     0.004473  d :     0.084381
      dxz     :     0.009825
      dyz     :     0.016182
      dx2y2   :     0.020589
      dxy     :     0.033312
      f0      :     0.001475  f :     0.006732
      f+1     :     0.000567
      f-1     :     0.000438
      f+2     :     0.000994
      f-2     :     0.000283
      f+3     :     0.002064
      f-3     :     0.000910
  9 C s       :     3.160994  s :     3.160994
      pz      :     0.964177  p :     2.845196
      px      :     0.954756
      py      :     0.926263
      dz2     :     0.003787  d :     0.085228
      dxz     :     0.007760
      dyz     :     0.018743
      dx2y2   :     0.026007
      dxy     :     0.028931
      f0      :     0.001490  f :     0.006849
      f+1     :     0.000606
      f-1     :     0.000481
      f+2     :     0.000747
      f-2     :     0.000555
      f+3     :     0.002121
      f-3     :     0.000849
 10 H s       :     0.875977  s :     0.875977
      pz      :     0.004952  p :     0.021823
      px      :     0.010033
      py      :     0.006839
 11 H s       :     0.869418  s :     0.869418
      pz      :     0.004959  p :     0.021902
      px      :     0.011421
      py      :     0.005521


                     *******************************
                     * LOEWDIN POPULATION ANALYSIS *
                     *******************************

----------------------
LOEWDIN ATOMIC CHARGES
----------------------
   0 C :   -0.146683
   1 C :   -0.144585
   2 C :   -0.143893
   3 C :   -0.146737
   4 H :    0.146118
   5 H :    0.144533
   6 H :    0.144609
   7 H :    0.146093
   8 C :   -0.143972
   9 C :   -0.144580
  10 H :    0.144570
  11 H :    0.144526

-------------------------------
LOEWDIN REDUCED ORBITAL CHARGES
-------------------------------
  0 C s       :     2.774157  s :     2.774157
      pz      :     0.889052  p :     2.949567
      px      :     1.069938
      py      :     0.990577
      dz2     :     0.025733  d :     0.380958
      dxz     :     0.075451
      dyz     :     0.011624
      dx2y2   :     0.164720
      dxy     :     0.103429
      f0      :     0.002984  f :     0.042002
      f+1     :     0.004381
      f-1     :     0.003199
      f+2     :     0.001394
      f-2     :     0.007270
      f+3     :     0.014762
      f-3     :     0.008011
  1 C s       :     2.773184  s :     2.773184
      pz      :     0.887547  p :     2.948111
      px      :     1.004821
      py      :     1.055742
      dz2     :     0.025656  d :     0.381260
      dxz     :     0.023283
      dyz     :     0.063866
      dx2y2   :     0.127573
      dxy     :     0.140882
      f0      :     0.002990  f :     0.042030
      f+1     :     0.003399
      f-1     :     0.004162
      f+2     :     0.004970
      f-2     :     0.003692
      f+3     :     0.014790
      f-3     :     0.008026
  2 C s       :     2.773598  s :     2.773598
      pz      :     0.887276  p :     2.947266
      px      :     1.015701
      py      :     1.044289
      dz2     :     0.025663  d :     0.380994
      dxz     :     0.031979
      dyz     :     0.055074
      dx2y2   :     0.110255
      dxy     :     0.158023
      f0      :     0.002988  f :     0.042035
      f+1     :     0.003567
      f-1     :     0.003998
      f+2     :     0.006638
      f-2     :     0.002039
      f+3     :     0.014791
      f-3     :     0.008014
  3 C s       :     2.774094  s :     2.774094
      pz      :     0.889008  p :     2.949547
      px      :     1.069988
      py      :     0.990552
      dz2     :     0.025741  d :     0.381077
      dxz     :     0.075488
      dyz     :     0.011624
      dx2y2   :     0.164812
      dxy     :     0.103412
      f0      :     0.002986  f :     0.042019
      f+1     :     0.004382
      f-1     :     0.003200
      f+2     :     0.001395
      f-2     :     0.007273
      f+3     :     0.014768
      f-3     :     0.008015
  4 H s       :     0.795752  s :     0.795752
      pz      :     0.013307  p :     0.058130
      px      :     0.011093
      py      :     0.033729
  5 H s       :     0.797399  s :     0.797399
      pz      :     0.013284  p :     0.058068
      px      :     0.029586
      py      :     0.015198
  6 H s       :     0.797289  s :     0.797289
      pz      :     0.013276  p :     0.058101
      px      :     0.026482
      py      :     0.018343
  7 H s       :     0.795767  s :     0.795767
      pz      :     0.013310  p :     0.058140
      px      :     0.011100
      py      :     0.033731
  8 C s       :     2.773496  s :     2.773496
      pz      :     0.887264  p :     2.947295
      px      :     1.015671
      py      :     1.044360
      dz2     :     0.025669  d :     0.381120
      dxz     :     0.031986
      dyz     :     0.055107
      dx2y2   :     0.110155
      dxy     :     0.158203
      f0      :     0.002990  f :     0.042061
      f+1     :     0.003565
      f-1     :     0.004003
      f+2     :     0.006644
      f-2     :     0.002038
      f+3     :     0.014804
      f-3     :     0.008017
  9 C s       :     2.773230  s :     2.773230
      pz      :     0.887568  p :     2.948128
      px      :     1.004897
      py      :     1.055663
      dz2     :     0.025654  d :     0.381201
      dxz     :     0.023298
      dyz     :     0.063827
      dx2y2   :     0.127762
      dxy     :     0.140660
      f0      :     0.002989  f :     0.042021
      f+1     :     0.003402
      f-1     :     0.004158
      f+2     :     0.004968
      f-2     :     0.003693
      f+3     :     0.014792
      f-3     :     0.008019
 10 H s       :     0.797321  s :     0.797321
      pz      :     0.013277  p :     0.058109
      px      :     0.026526
      py      :     0.018306
 11 H s       :     0.797407  s :     0.797407
      pz      :     0.013283  p :     0.058066
      px      :     0.029616
      py      :     0.015168


                      *****************************
                      * MAYER POPULATION ANALYSIS *
                      *****************************

  NA   - Mulliken gross atomic population
  ZA   - Total nuclear charge
  QA   - Mulliken gross atomic charge
  VA   - Mayer's total valence
  BVA  - Mayer's bonded valence
  FA   - Mayer's free valence

  ATOM       NA         ZA         QA         VA         BVA        FA
  0 C      6.1371     6.0000    -0.1371     3.8916     3.8916    -0.0000
  1 C      6.0981     6.0000    -0.0981     3.8838     3.8838    -0.0000
  2 C      6.0926     6.0000    -0.0926     3.9060     3.9060    -0.0000
  3 C      6.1370     6.0000    -0.1370     3.8916     3.8916    -0.0000
  4 H      0.8830     1.0000     0.1170     0.9600     0.9600    -0.0000
  5 H      0.8914     1.0000     0.1086     0.9622     0.9622    -0.0000
  6 H      0.8978     1.0000     0.1022     0.9646     0.9646    -0.0000
  7 H      0.8830     1.0000     0.1170     0.9600     0.9600    -0.0000
  8 C      6.0927     6.0000    -0.0927     3.9060     3.9060     0.0000
  9 C      6.0983     6.0000    -0.0983     3.8841     3.8841     0.0000
 10 H      0.8978     1.0000     0.1022     0.9646     0.9646    -0.0000
 11 H      0.8913     1.0000     0.1087     0.9622     0.9622     0.0000

  Mayer bond orders larger than 0.1
B(  0-C ,  1-C ) :   1.3780 B(  0-C ,  2-C ) :   1.3793 B(  0-C ,  7-H ) :   0.9802 
B(  1-C ,  5-H ) :   0.9639 B(  1-C ,  8-C ) :   1.3968 B(  2-C ,  9-C ) :   1.3963 
B(  2-C , 10-H ) :   0.9750 B(  3-C ,  4-H ) :   0.9801 B(  3-C ,  8-C ) :   1.3787 
B(  3-C ,  9-C ) :   1.3787 B(  6-H ,  8-C ) :   0.9750 B(  9-C , 11-H ) :   0.9639 


-------
TIMINGS
-------

Total SCF time: 0 days 0 hours 0 min 13 sec 

Total time                  ....      13.101 sec
Sum of individual times     ....      12.791 sec  ( 97.6%)

Fock matrix formation       ....      10.976 sec  ( 83.8%)
  Split-RI-J                ....       3.751 sec  ( 34.2% of F)
  XC integration            ....       6.588 sec  ( 60.0% of F)
    Basis function eval.    ....       1.667 sec  ( 25.3% of XC)
    Density eval.           ....       1.585 sec  ( 24.1% of XC)
    XC-Functional eval.     ....       0.797 sec  ( 12.1% of XC)
    XC-Potential eval.      ....       1.984 sec  ( 30.1% of XC)
Diagonalization             ....       0.016 sec  (  0.1%)
Density matrix formation    ....       0.003 sec  (  0.0%)
Population analysis         ....       0.033 sec  (  0.3%)
Initial guess               ....       0.009 sec  (  0.1%)
Orbital Transformation      ....       0.000 sec  (  0.0%)
Orbital Orthonormalization  ....       0.007 sec  (  0.1%)
DIIS solution               ....       0.003 sec  (  0.0%)
SOSCF solution              ....       0.072 sec  (  0.5%)
Grid generation             ....       1.678 sec  ( 12.8%)

-------------------------   --------------------
FINAL SINGLE POINT ENERGY      -232.019517891729
-------------------------   --------------------

                                *** OPTIMIZATION RUN DONE ***

                            ***************************************
                            *     ORCA property calculations      *
                            ***************************************

                                    ---------------------
                                    Active property flags
                                    ---------------------
   (+) Dipole Moment


------------------------------------------------------------------------------
                       ORCA ELECTRIC PROPERTIES CALCULATION
------------------------------------------------------------------------------

Dipole Moment Calculation                       ... on
Quadrupole Moment Calculation                   ... off
Polarizability Calculation                      ... off
GBWName                                         ... opt.gbw
Electron density file                           ... opt.scfp.tmp
The origin for moment calculation is the CENTER OF MASS  = (-4.663538,  1.446980 -0.000029)

-------------
DIPOLE MOMENT
-------------
                                X             Y             Z
Electronic contribution:     -0.00044       0.00011      -0.00013
Nuclear contribution   :      0.00049      -0.00013       0.00019
                        -----------------------------------------
Total Dipole Moment    :      0.00005      -0.00002       0.00006
                        -----------------------------------------
Magnitude (a.u.)       :      0.00008
Magnitude (Debye)      :      0.00020


Timings for individual modules:

Sum of individual times         ...      902.918 sec (=  15.049 min)
GTO integral calculation        ...        9.034 sec (=   0.151 min)   1.0 %
SCF iterations                  ...      651.706 sec (=  10.862 min)  72.2 %
SCF Gradient evaluation         ...      240.280 sec (=   4.005 min)  26.6 %
Geometry relaxation             ...        1.898 sec (=   0.032 min)   0.2 %
                             ****ORCA TERMINATED NORMALLY****
TOTAL RUN TIME: 0 days 0 hours 15 minutes 6 seconds 589 msec
