
                                 *****************
                                 * O   R   C   A *
                                 *****************

           --- An Ab Initio, DFT and Semiempirical electronic structure package ---

                  #######################################################
                  #                        -***-                        #
                  #  Department of molecular theory and spectroscopy    #
                  #              Directorship: Frank Neese              #
                  # Max Planck Institute for Chemical Energy Conversion #
                  #                  D-45470 Muelheim/Ruhr              #
                  #                       Germany                       #
                  #                                                     #
                  #                  All rights reserved                #
                  #                        -***-                        #
                  #######################################################


                         Program Version 4.0.1.2 - RELEASE -


 With contributions from (in alphabetic order):
   Daniel Aravena         : Magnetic Properties
   Michael Atanasov       : Ab Initio Ligand Field Theory
   Ute Becker             : Parallelization
   Martin Brehm           : Molecular dynamics
   Dmytro Bykov           : SCF Hessian
   Vijay G. Chilkuri      : MRCI spin determinant printing
   Dipayan Datta          : RHF DLPNO-CCSD density
   Achintya Kumar Dutta   : EOM-CC, STEOM-CC
   Dmitry Ganyushin       : Spin-Orbit,Spin-Spin,Magnetic field MRCI
   Yang Guo               : DLPNO-NEVPT2, CIM, IAO-localization
   Andreas Hansen         : Spin unrestricted coupled pair/coupled cluster methods
   Lee Huntington         : MR-EOM, pCC
   Robert Izsak           : Overlap fitted RIJCOSX, COSX-SCS-MP3, EOM
   Christian Kollmar      : KDIIS, OOCD, Brueckner-CCSD(T), CCSD density
   Simone Kossmann        : Meta GGA functionals, TD-DFT gradient, OOMP2, MP2 Hessian
   Martin Krupicka        : AUTO-CI
   Dagmar Lenk            : GEPOL surface
   Dimitrios Liakos       : Extrapolation schemes; parallel MDCI
   Dimitrios Manganas     : ROCIS; embedding schemes
   Dimitrios Pantazis     : SARC Basis sets
   Taras Petrenko         : DFT Hessian,TD-DFT gradient, ASA, ECA, R-Raman, ABS, FL, XAS/XES, NRVS
   Peter Pinski           : DLPNO-MP2
   Christoph Reimann      : Effective Core Potentials
   Marius Retegan         : Local ZFS, SOC
   Christoph Riplinger    : Optimizer, TS searches, QM/MM, DLPNO-CCSD(T), (RO)-DLPNO pert. Triples
   Tobias Risthaus        : Range-separated hybrids, TD-DFT gradient, RPA, STAB
   Michael Roemelt        : Restricted open shell CIS
   Masaaki Saitow         : Open-shell DLPNO
   Barbara Sandhoefer     : DKH picture change effects
   Kantharuban Sivalingam : CASSCF convergence, NEVPT2, FIC-MRCI
   Georgi Stoychev        : AutoAux
   Boris Wezisla          : Elementary symmetry handling
   Frank Wennmohs         : Technical directorship


 We gratefully acknowledge several colleagues who have allowed us to
 interface, adapt or use parts of their codes:
   Stefan Grimme, W. Hujo, H. Kruse,             : VdW corrections, initial TS optimization,
                  C. Bannwarth                     DFT functionals, gCP, sTDA/sTD-DF
   Ed Valeev                                     : LibInt (2-el integral package), F12 methods
   Garnet Chan, S. Sharma, J. Yang, R. Olivares  : DMRG
   Ulf Ekstrom                                   : XCFun DFT Library
   Mihaly Kallay                                 : mrcc  (arbitrary order and MRCC methods)
   Andreas Klamt, Michael Diedenhofen            : otool_cosmo (COSMO solvation model)
   Jiri Pittner, Ondrej Demel                    : Mk-CCSD
   Frank Weinhold                                : gennbo (NPA and NBO analysis)
   Christopher J. Cramer and Donald G. Truhlar   : smd solvation model


 Your calculation uses the libint2 library for the computation of 2-el integrals
 For citations please refer to: http://libint.valeyev.net

 This ORCA versions uses:
   CBLAS   interface :  Fast vector & matrix operations
   LAPACKE interface :  Fast linear algebra routines
   SCALAPACK package :  Parallel linear algebra routines




*****************************************
The coordinations will be read from file: opt.xyz
*****************************************


Your calculation utilizes the basis: def2-TZVP
   F. Weigend and R. Ahlrichs, Phys. Chem. Chem. Phys. 7, 3297 (2005).

Your calculation utilizes the auxiliary basis: def2/J
   F. Weigend, Phys. Chem. Chem. Phys. 8, 1057 (2006).

================================================================================
                                        WARNINGS
                       Please study these warnings very carefully!
================================================================================

Warning: TCutStore was < 0. Adjusted to Thresh (uncritical)

INFO   : the flag for use of LIBINT has been found!

================================================================================
                                       INPUT FILE
================================================================================
NAME = freq.inp
|  1> # avogadro generated ORCA input file 
|  2> # Basic Mode
|  3> # 
|  4> ! PBE FREQ def2-TZVP
|  5> 
|  6> * xyzfile 0 1 opt.xyz
|  7> 
|  8> 
|  9>                          ****END OF INPUT****
================================================================================

                       ****************************
                       * Single Point Calculation *
                       ****************************

---------------------------------
CARTESIAN COORDINATES (ANGSTROEM)
---------------------------------
  C     -0.047665    0.018084   -0.007183
  C      1.343873    0.492019    0.413403
  C      2.384906   -0.629772    0.433240
  C      3.781202   -0.168099    0.855060
  C      4.822234   -1.289890    0.874897
  C      6.213772   -0.815955    1.295484
  H      6.939587   -1.642373    1.296797
  H      6.591816   -0.038922    0.613224
  H      6.198070   -0.384994    2.308454
  H      4.480786   -2.088021    1.556595
  H      4.876786   -1.750502   -0.126655
  H      4.123134    0.632325    0.174473
  H      3.726165    0.292536    1.858084
  H      2.042973   -1.430196    1.113828
  H      2.439943   -1.090408   -0.569784
  H      1.685321    1.290150   -0.268294
  H      1.289321    0.952630    1.414955
  H     -0.773479    0.844502   -0.008496
  H     -0.031962   -0.412877   -1.020153
  H     -0.425709   -0.758950    0.675076

----------------------------
CARTESIAN COORDINATES (A.U.)
----------------------------
  NO LB      ZA    FRAG     MASS         X           Y           Z
   0 C     6.0000    0    12.011   -0.090074    0.034174   -0.013575
   1 C     6.0000    0    12.011    2.539553    0.929781    0.781219
   2 C     6.0000    0    12.011    4.506818   -1.190098    0.818706
   3 C     6.0000    0    12.011    7.145436   -0.317661    1.615829
   4 C     6.0000    0    12.011    9.112702   -2.437540    1.653316
   5 C     6.0000    0    12.011   11.742328   -1.541932    2.448110
   6 H     1.0000    0     1.008   13.113919   -3.103635    2.450591
   7 H     1.0000    0     1.008   12.456727   -0.073551    1.158826
   8 H     1.0000    0     1.008   11.712654   -0.727533    4.362345
   9 H     1.0000    0     1.008    8.467459   -3.945788    2.941538
  10 H     1.0000    0     1.008    9.215791   -3.307969   -0.239343
  11 H     1.0000    0     1.008    7.791594    1.194921    0.329706
  12 H     1.0000    0     1.008    7.041431    0.552814    3.511270
  13 H     1.0000    0     1.008    3.860660   -2.702679    2.104829
  14 H     1.0000    0     1.008    4.610824   -2.060572   -1.076735
  15 H     1.0000    0     1.008    3.184796    2.438030   -0.507003
  16 H     1.0000    0     1.008    2.436464    1.800211    2.673878
  17 H     1.0000    0     1.008   -1.461664    1.595877   -0.016055
  18 H     1.0000    0     1.008   -0.060399   -0.780225   -1.927810
  19 H     1.0000    0     1.008   -0.804473   -1.434207    1.275709

--------------------------------
INTERNAL COORDINATES (ANGSTROEM)
--------------------------------
 C      0   0   0     0.000000000000     0.00000000     0.00000000
 C      1   0   0     1.529014845921     0.00000000     0.00000000
 C      2   1   0     1.530541520805   113.29091714     0.00000000
 C      3   2   1     1.529940565012   113.77590674   180.10040089
 C      4   3   2     1.530541524716   113.77591187   179.99999648
 C      5   4   3     1.529014848398   113.29091448   179.89959630
 H      6   5   4     1.099897806669   111.59213201   180.19663017
 H      6   5   4     1.100988812338   111.14918101   300.47213651
 H      6   5   4     1.100945782007   111.18877836    60.04715393
 H      5   4   3     1.103771386527   109.12188323   302.32280528
 H      5   4   3     1.103741701529   109.13072366    57.61092356
 H      4   3   2     1.104895834949   109.34232432   302.34603167
 H      4   3   2     1.105111397482   109.30327385    57.74889331
 H      3   2   1     1.104895838964   109.17505114   302.53855461
 H      3   2   1     1.105111395520   109.12410926    57.75052962
 H      2   1   3     1.103771394492   109.61987571   122.14608433
 H      2   1   3     1.103741708394   109.51019269   237.92273057
 H      1   2   3     1.099897803802   111.59213019   179.80336970
 H      1   2   3     1.100945782795   111.18877906   299.95284556
 H      1   2   3     1.100988812844   111.14918176    59.52786419

---------------------------
INTERNAL COORDINATES (A.U.)
---------------------------
 C      0   0   0     0.000000000000     0.00000000     0.00000000
 C      1   0   0     2.889419313491     0.00000000     0.00000000
 C      2   1   0     2.892304310916   113.29091714     0.00000000
 C      3   2   1     2.891168669049   113.77590674   180.10040089
 C      4   3   2     2.892304318308   113.77591187   179.99999648
 C      5   4   3     2.889419318170   113.29091448   179.89959630
 H      6   5   4     2.078505629904   111.59213201   180.19663017
 H      6   5   4     2.080567331829   111.14918101   300.47213651
 H      6   5   4     2.080486016290   111.18877836    60.04715393
 H      5   4   3     2.085825634994   109.12188323   302.32280528
 H      5   4   3     2.085769538478   109.13072366    57.61092356
 H      4   3   2     2.087950534564   109.34232432   302.34603167
 H      4   3   2     2.088357888715   109.30327385    57.74889331
 H      3   2   1     2.087950542151   109.17505114   302.53855461
 H      3   2   1     2.088357885008   109.12410926    57.75052962
 H      2   1   3     2.085825650046   109.61987571   122.14608433
 H      2   1   3     2.085769551451   109.51019269   237.92273057
 H      1   2   3     2.078505624487   111.59213019   179.80336970
 H      1   2   3     2.080486017777   111.18877906   299.95284556
 H      1   2   3     2.080567332786   111.14918176    59.52786419

---------------------
BASIS SET INFORMATION
---------------------
There are 2 groups of distinct atoms

 Group   1 Type C   : 11s6p2d1f contracted to 5s3p2d1f pattern {62111/411/11/1}
 Group   2 Type H   : 5s1p contracted to 3s1p pattern {311/1}

Atom   0C    basis set group =>   1
Atom   1C    basis set group =>   1
Atom   2C    basis set group =>   1
Atom   3C    basis set group =>   1
Atom   4C    basis set group =>   1
Atom   5C    basis set group =>   1
Atom   6H    basis set group =>   2
Atom   7H    basis set group =>   2
Atom   8H    basis set group =>   2
Atom   9H    basis set group =>   2
Atom  10H    basis set group =>   2
Atom  11H    basis set group =>   2
Atom  12H    basis set group =>   2
Atom  13H    basis set group =>   2
Atom  14H    basis set group =>   2
Atom  15H    basis set group =>   2
Atom  16H    basis set group =>   2
Atom  17H    basis set group =>   2
Atom  18H    basis set group =>   2
Atom  19H    basis set group =>   2
-------------------------------
AUXILIARY BASIS SET INFORMATION
-------------------------------
There are 2 groups of distinct atoms

 Group   1 Type C   : 12s5p4d2f1g contracted to 6s4p3d1f1g pattern {711111/2111/211/2/1}
 Group   2 Type H   : 5s2p1d contracted to 3s1p1d pattern {311/2/1}

Atom   0C    basis set group =>   1
Atom   1C    basis set group =>   1
Atom   2C    basis set group =>   1
Atom   3C    basis set group =>   1
Atom   4C    basis set group =>   1
Atom   5C    basis set group =>   1
Atom   6H    basis set group =>   2
Atom   7H    basis set group =>   2
Atom   8H    basis set group =>   2
Atom   9H    basis set group =>   2
Atom  10H    basis set group =>   2
Atom  11H    basis set group =>   2
Atom  12H    basis set group =>   2
Atom  13H    basis set group =>   2
Atom  14H    basis set group =>   2
Atom  15H    basis set group =>   2
Atom  16H    basis set group =>   2
Atom  17H    basis set group =>   2
Atom  18H    basis set group =>   2
Atom  19H    basis set group =>   2
------------------------------------------------------------------------------
                           ORCA GTO INTEGRAL CALCULATION
                           -- RI-GTO INTEGRALS CHOSEN --
------------------------------------------------------------------------------

                         BASIS SET STATISTICS AND STARTUP INFO

Gaussian basis set:
 # of primitive gaussian shells          ...  204
 # of primitive gaussian functions       ...  388
 # of contracted shells                  ...  122
 # of contracted basis functions         ...  270
 Highest angular momentum                ...    3
 Maximum contraction depth               ...    6
Auxiliary gaussian basis set:
 # of primitive gaussian shells          ...  256
 # of primitive gaussian functions       ...  644
 # of contracted shells                  ...  160
 # of contracted aux-basis functions     ...  448
 Highest angular momentum                ...    4
 Maximum contraction depth               ...    7
Ratio of auxiliary to basis functions    ...  1.66
Integral package used                  ... LIBINT
 One Electron integrals                  ... done
 Ordering auxiliary basis shells         ... done
 Integral threshhold             Thresh  ...  1.000e-10
 Primitive cut-off               TCut    ...  1.000e-11
 Pre-screening matrix                    ... done
 Shell pair data                         ... 
 Ordering of the shell pairs             ... done (   0.001 sec) 6697 of 7503 pairs
 Determination of significant pairs      ... done (   0.000 sec)
 Creation of shell pair data             ... done (   0.002 sec)
 Storage of shell pair data              ... done (   0.018 sec)
 Shell pair data done in (   0.022 sec)
 Computing two index integrals           ... done
 Cholesky decomposition of the V-matrix  ... done


Timings:
 Total evaluation time                   ...   0.337 sec (  0.006 min)
 One electron matrix time                ...   0.055 sec (  0.001 min) = 16.2%
 Schwartz matrix evaluation time         ...   0.197 sec (  0.003 min) = 58.5%
 Two index repulsion integral time       ...   0.021 sec (  0.000 min) =  6.4%
 Cholesky decomposition of V             ...   0.017 sec (  0.000 min) =  5.1%
 Three index repulsion integral time     ...   0.000 sec (  0.000 min) =  0.0%

-------------------------------------------------------------------------------
                                 ORCA SCF
-------------------------------------------------------------------------------

------------
SCF SETTINGS
------------
Hamiltonian:
 Density Functional     Method          .... DFT(GTOs)
 Exchange Functional    Exchange        .... PBE
   PBE kappa parameter   XKappa         ....  0.804000
   PBE mue parameter    XMuePBE         ....  0.219520
 Correlation Functional Correlation     .... PBE
   PBE beta parameter  CBetaPBE         ....  0.066725
 LDA part of GGA corr.  LDAOpt          .... PW91-LDA
 Gradients option       PostSCFGGA      .... off
   NL short-range parameter             ....  6.400000
 RI-approximation to the Coulomb term is turned on
   Number of auxiliary basis functions  .... 448


General Settings:
 Integral files         IntName         .... freq
 Hartree-Fock type      HFTyp           .... RHF
 Total Charge           Charge          ....    0
 Multiplicity           Mult            ....    1
 Number of Electrons    NEL             ....   50
 Basis Dimension        Dim             ....  270
 Nuclear Repulsion      ENuc            ....    243.2607534611 Eh

Convergence Acceleration:
 DIIS                   CNVDIIS         .... on
   Start iteration      DIISMaxIt       ....    12
   Startup error        DIISStart       ....  0.200000
   # of expansion vecs  DIISMaxEq       ....     5
   Bias factor          DIISBfac        ....   1.050
   Max. coefficient     DIISMaxC        ....  10.000
 Newton-Raphson         CNVNR           .... off
 SOSCF                  CNVSOSCF        .... on
   Start iteration      SOSCFMaxIt      ....   150
   Startup grad/error   SOSCFStart      ....  0.003300
 Level Shifting         CNVShift        .... on
   Level shift para.    LevelShift      ....    0.2500
   Turn off err/grad.   ShiftErr        ....    0.0010
 Zerner damping         CNVZerner       .... off
 Static damping         CNVDamp         .... on
   Fraction old density DampFac         ....    0.7000
   Max. Damping (<1)    DampMax         ....    0.9800
   Min. Damping (>=0)   DampMin         ....    0.0000
   Turn off err/grad.   DampErr         ....    0.1000
 Fernandez-Rico         CNVRico         .... off

SCF Procedure:
 Maximum # iterations   MaxIter         ....   125
 SCF integral mode      SCFMode         .... Direct
   Integral package                     .... LIBINT
 Reset frequeny         DirectResetFreq ....    20
 Integral Threshold     Thresh          ....  1.000e-10 Eh
 Primitive CutOff       TCut            ....  1.000e-11 Eh

Convergence Tolerance:
 Convergence Check Mode ConvCheckMode   .... Total+1el-Energy
 Convergence forced     ConvForced      .... 0
 Energy Change          TolE            ....  1.000e-06 Eh
 1-El. energy change                    ....  1.000e-03 Eh
 Orbital Gradient       TolG            ....  5.000e-05
 Orbital Rotation angle TolX            ....  5.000e-05
 DIIS Error             TolErr          ....  1.000e-06


Diagonalization of the overlap matrix:
Smallest eigenvalue                        ... 1.212e-04
Time for diagonalization                   ...    0.015 sec
Threshold for overlap eigenvalues          ... 1.000e-08
Number of eigenvalues below threshold      ... 0
Time for construction of square roots      ...    0.012 sec
Total time needed                          ...    0.027 sec

-------------------
DFT GRID GENERATION
-------------------

General Integration Accuracy     IntAcc      ...  4.340
Radial Grid Type                 RadialGrid  ... Gauss-Chebyshev
Angular Grid (max. acc.)         AngularGrid ... Lebedev-110
Angular grid pruning method      GridPruning ... 3 (G Style)
Weight generation scheme         WeightScheme... Becke
Basis function cutoff            BFCut       ...    1.0000e-10
Integration weight cutoff        WCut        ...    1.0000e-14
Grids for H and He will be reduced by one unit

# of grid points (after initial pruning)     ...  21052 (   0.0 sec)
# of grid points (after weights+screening)   ...  19432 (   0.1 sec)
nearest neighbour list constructed           ...    0.0 sec
Grid point re-assignment to atoms done       ...    0.0 sec
Grid point division into batches done        ...    0.0 sec
Reduced shell lists constructed in    0.5 sec

Total number of grid points                  ...    19432
Total number of batches                      ...      314
Average number of points per batch           ...       61
Average number of grid points per atom       ...      972
Average number of shells per batch           ...    79.55 (65.21%)
Average number of basis functions per batch  ...   177.52 (65.75%)
Average number of large shells per batch     ...    60.88 (76.53%)
Average number of large basis fcns per batch ...   135.42 (76.28%)
Maximum spatial batch extension              ...  19.87, 19.39, 22.44 au
Average spatial batch extension              ...   3.54,  3.92,  3.70 au

Time for grid setup =    0.554 sec

------------------------------
INITIAL GUESS: MODEL POTENTIAL
------------------------------
Loading Hartree-Fock densities                     ... done
Calculating cut-offs                               ... done
Setting up the integral package                    ... done
Initializing the effective Hamiltonian             ... done
Starting the Coulomb interaction                   ... done (   0.4 sec)
Reading the grid                                   ... done
Mapping shells                                     ... done
Starting the XC term evaluation                    ... done (   0.7 sec)
  promolecular density results
     # of electrons  =     49.999488920
     EX              =    -34.792365330
     EC              =     -1.602622326
     EX+EC           =    -36.394987656
Transforming the Hamiltonian                       ... done (   0.0 sec)
Diagonalizing the Hamiltonian                      ... done (   0.0 sec)
Back transforming the eigenvectors                 ... done (   0.0 sec)
Now organizing SCF variables                       ... done
                      ------------------
                      INITIAL GUESS DONE (   1.8 sec)
                      ------------------
--------------
SCF ITERATIONS
--------------
ITER       Energy         Delta-E        Max-DP      RMS-DP      [F,P]     Damp
               ***  Starting incremental Fock matrix formation  ***
  0   -236.5772763663   0.000000000000 0.03222710  0.00103425  0.1750600 0.7000
  1   -236.6953860286  -0.118109662394 0.02022386  0.00079678  0.0824759 0.7000
                               ***Turning on DIIS***
  2   -236.7353117246  -0.039925695977 0.03361120  0.00134253  0.0217133 0.0000
  3   -236.7897342636  -0.054422538938 0.01329355  0.00052464  0.0545605 0.0000
  4   -236.8108690330  -0.021134769439 0.00712442  0.00023001  0.0137975 0.0000
                      *** Initiating the SOSCF procedure ***
                           *** Shutting down DIIS ***
                      *** Re-Reading the Fockian *** 
                      *** Removing any level shift *** 
ITER      Energy       Delta-E        Grad      Rot      Max-DP    RMS-DP
  5   -236.81233552  -0.0014664843  0.001590  0.001590  0.004238  0.000116
               *** Restarting incremental Fock matrix formation ***
  6   -236.81245905  -0.0001235369  0.000704  0.002349  0.003476  0.000095
  7   -236.81245631   0.0000027443  0.000586  0.000488  0.000722  0.000015
  8   -236.81247178  -0.0000154705  0.000068  0.000295  0.000357  0.000011
  9   -236.81247194  -0.0000001628  0.000037  0.000066  0.000061  0.000002
                 **** Energy Check signals convergence ****
              ***Rediagonalizing the Fockian in SOSCF/NRSCF***

               *****************************************************
               *                     SUCCESS                       *
               *           SCF CONVERGED AFTER  10 CYCLES          *
               *****************************************************

Setting up the final grid:

General Integration Accuracy     IntAcc      ...  4.670
Radial Grid Type                 RadialGrid  ... Gauss-Chebyshev
Angular Grid (max. acc.)         AngularGrid ... Lebedev-302
Angular grid pruning method      GridPruning ... 3 (G Style)
Weight generation scheme         WeightScheme... Becke
Basis function cutoff            BFCut       ...    1.0000e-10
Integration weight cutoff        WCut        ...    1.0000e-14
Grids for H and He will be reduced by one unit

# of grid points (after initial pruning)     ...  84788 (   0.0 sec)
# of grid points (after weights+screening)   ...  76960 (   0.3 sec)
nearest neighbour list constructed           ...    0.0 sec
Grid point re-assignment to atoms done       ...    0.0 sec
Grid point division into batches done        ...    0.2 sec
Reduced shell lists constructed in    1.9 sec

Total number of grid points                  ...    76960
Total number of batches                      ...     1214
Average number of points per batch           ...       63
Average number of grid points per atom       ...     3848
Average number of shells per batch           ...    72.83 (59.70%)
Average number of basis functions per batch  ...   162.24 (60.09%)
Average number of large shells per batch     ...    54.78 (75.22%)
Average number of large basis fcns per batch ...   120.95 (74.55%)
Maximum spatial batch extension              ...  17.38, 19.65, 20.68 au
Average spatial batch extension              ...   2.32,  2.43,  2.43 au

Final grid set up in    2.3 sec
Final integration                            ... done (   2.7 sec)
Change in XC energy                          ...     0.000732387
Integrated number of electrons               ...    50.000016353
Previous integrated no of electrons          ...    50.004046029

----------------
TOTAL SCF ENERGY
----------------

Total Energy       :         -236.81173962 Eh           -6443.97504 eV

Components:
Nuclear Repulsion  :          243.26075346 Eh            6619.46163 eV
Electronic Energy  :         -480.07249308 Eh          -13063.43667 eV
One Electron Energy:         -798.90001004 Eh          -21739.17447 eV
Two Electron Energy:          318.82751696 Eh            8675.73780 eV

Virial components:
Potential Energy   :         -472.28960757 Eh          -12851.65359 eV
Kinetic Energy     :          235.47786795 Eh            6407.67855 eV
Virial Ratio       :            2.00566453


DFT components:
N(Alpha)           :       25.000008176490 electrons
N(Beta)            :       25.000008176490 electrons
N(Total)           :       50.000016352979 electrons
E(X)               :      -35.845829183653 Eh       
E(C)               :       -1.602480437679 Eh       
E(XC)              :      -37.448309621332 Eh       

---------------
SCF CONVERGENCE
---------------

  Last Energy change         ...   -6.2678e-08  Tolerance :   1.0000e-06
  Last MAX-Density change    ...    6.0182e-05  Tolerance :   1.0000e-05
  Last RMS-Density change    ...    1.7565e-06  Tolerance :   1.0000e-06
  Last Orbital Gradient      ...    1.5322e-05  Tolerance :   5.0000e-05
  Last Orbital Rotation      ...    4.0520e-05  Tolerance :   5.0000e-05

             **** THE GBW FILE WAS UPDATED (freq.gbw) ****
             **** DENSITY FILE WAS UPDATED (freq.scfp.tmp) ****
             **** ENERGY FILE WAS UPDATED (freq.en.tmp) ****
----------------
ORBITAL ENERGIES
----------------

  NO   OCC          E(Eh)            E(eV) 
   0   2.0000      -9.876307      -268.7480 
   1   2.0000      -9.876304      -268.7479 
   2   2.0000      -9.874127      -268.6887 
   3   2.0000      -9.874025      -268.6859 
   4   2.0000      -9.868828      -268.5445 
   5   2.0000      -9.868828      -268.5445 
   6   2.0000      -0.730384       -19.8748 
   7   2.0000      -0.694344       -18.8941 
   8   2.0000      -0.638571       -17.3764 
   9   2.0000      -0.572380       -15.5752 
  10   2.0000      -0.519101       -14.1255 
  11   2.0000      -0.513259       -13.9665 
  12   2.0000      -0.427191       -11.6245 
  13   2.0000      -0.395535       -10.7631 
  14   2.0000      -0.388435       -10.5699 
  15   2.0000      -0.374370       -10.1871 
  16   2.0000      -0.351358        -9.5609 
  17   2.0000      -0.338107        -9.2003 
  18   2.0000      -0.333400        -9.0723 
  19   2.0000      -0.308611        -8.3977 
  20   2.0000      -0.298135        -8.1127 
  21   2.0000      -0.284074        -7.7300 
  22   2.0000      -0.282124        -7.6770 
  23   2.0000      -0.275527        -7.4975 
  24   2.0000      -0.271734        -7.3943 
  25   0.0000       0.015237         0.4146 
  26   0.0000       0.027106         0.7376 
  27   0.0000       0.046492         1.2651 
  28   0.0000       0.048933         1.3315 
  29   0.0000       0.053713         1.4616 
  30   0.0000       0.082715         2.2508 
  31   0.0000       0.086359         2.3500 
  32   0.0000       0.087963         2.3936 
  33   0.0000       0.102162         2.7800 
  34   0.0000       0.104951         2.8559 
  35   0.0000       0.107840         2.9345 
  36   0.0000       0.108864         2.9624 
  37   0.0000       0.130225         3.5436 
  38   0.0000       0.135766         3.6944 
  39   0.0000       0.136762         3.7215 
  40   0.0000       0.147320         4.0088 
  41   0.0000       0.158250         4.3062 
  42   0.0000       0.165167         4.4944 
  43   0.0000       0.182977         4.9790 
  44   0.0000       0.194531         5.2935 
  45   0.0000       0.209139         5.6910 
  46   0.0000       0.229116         6.2346 
  47   0.0000       0.230487         6.2719 
  48   0.0000       0.257618         7.0102 
  49   0.0000       0.260895         7.0993 
  50   0.0000       0.263131         7.1602 
  51   0.0000       0.273775         7.4498 
  52   0.0000       0.285976         7.7818 
  53   0.0000       0.298056         8.1105 
  54   0.0000       0.336321         9.1518 
  55   0.0000       0.337913         9.1951 
  56   0.0000       0.362051         9.8519 
  57   0.0000       0.369634        10.0582 
  58   0.0000       0.376671        10.2497 
  59   0.0000       0.379862        10.3366 
  60   0.0000       0.390324        10.6213 
  61   0.0000       0.407923        11.1001 
  62   0.0000       0.411200        11.1893 
  63   0.0000       0.419888        11.4257 
  64   0.0000       0.423291        11.5183 
  65   0.0000       0.428768        11.6674 
  66   0.0000       0.432928        11.7806 
  67   0.0000       0.438665        11.9367 
  68   0.0000       0.444118        12.0851 
  69   0.0000       0.447427        12.1751 
  70   0.0000       0.449892        12.2422 
  71   0.0000       0.454680        12.3725 
  72   0.0000       0.462962        12.5978 
  73   0.0000       0.484608        13.1868 
  74   0.0000       0.490845        13.3566 
  75   0.0000       0.513397        13.9702 
  76   0.0000       0.548678        14.9303 
  77   0.0000       0.561088        15.2680 
  78   0.0000       0.569721        15.5029 
  79   0.0000       0.592127        16.1126 
  80   0.0000       0.613680        16.6991 
  81   0.0000       0.661450        17.9990 
  82   0.0000       0.663406        18.0522 
  83   0.0000       0.715396        19.4669 
  84   0.0000       0.755767        20.5655 
  85   0.0000       0.766396        20.8547 
  86   0.0000       0.773785        21.0558 
  87   0.0000       0.786971        21.4146 
  88   0.0000       0.796262        21.6674 
  89   0.0000       0.812946        22.1214 
  90   0.0000       0.825839        22.4722 
  91   0.0000       0.840909        22.8823 
  92   0.0000       0.854069        23.2404 
  93   0.0000       0.928927        25.2774 
  94   0.0000       0.946129        25.7455 
  95   0.0000       0.967015        26.3138 
  96   0.0000       0.969559        26.3830 
  97   0.0000       1.006276        27.3822 
  98   0.0000       1.013009        27.5654 
  99   0.0000       1.014069        27.5942 
 100   0.0000       1.035836        28.1865 
 101   0.0000       1.047620        28.5072 
 102   0.0000       1.060613        28.8607 
 103   0.0000       1.069608        29.1055 
 104   0.0000       1.085691        29.5432 
 105   0.0000       1.127066        30.6690 
 106   0.0000       1.146617        31.2010 
 107   0.0000       1.166564        31.7438 
 108   0.0000       1.212612        32.9968 
 109   0.0000       1.222571        33.2679 
 110   0.0000       1.259954        34.2851 
 111   0.0000       1.260148        34.2904 
 112   0.0000       1.389285        37.8044 
 113   0.0000       1.446297        39.3558 
 114   0.0000       1.447091        39.3773 
 115   0.0000       1.457376        39.6572 
 116   0.0000       1.460838        39.7514 
 117   0.0000       1.469070        39.9754 
 118   0.0000       1.474732        40.1295 
 119   0.0000       1.486207        40.4418 
 120   0.0000       1.493914        40.6515 
 121   0.0000       1.503792        40.9203 
 122   0.0000       1.517494        41.2931 
 123   0.0000       1.534476        41.7552 
 124   0.0000       1.539885        41.9024 
 125   0.0000       1.551625        42.2219 
 126   0.0000       1.556353        42.3505 
 127   0.0000       1.577242        42.9189 
 128   0.0000       1.655066        45.0366 
 129   0.0000       1.665498        45.3205 
 130   0.0000       1.667224        45.3675 
 131   0.0000       1.707683        46.4684 
 132   0.0000       1.746209        47.5168 
 133   0.0000       1.756002        47.7832 
 134   0.0000       1.764450        48.0131 
 135   0.0000       1.772250        48.2254 
 136   0.0000       1.775287        48.3080 
 137   0.0000       1.804321        49.0981 
 138   0.0000       1.820964        49.5509 
 139   0.0000       1.836013        49.9604 
 140   0.0000       1.856126        50.5077 
 141   0.0000       1.877476        51.0887 
 142   0.0000       1.883697        51.2580 
 143   0.0000       1.890354        51.4391 
 144   0.0000       1.915789        52.1313 
 145   0.0000       1.938726        52.7554 
 146   0.0000       1.997640        54.3586 
 147   0.0000       2.029232        55.2182 
 148   0.0000       2.068666        56.2913 
 149   0.0000       2.072392        56.3926 
 150   0.0000       2.153601        58.6025 
 151   0.0000       2.169203        59.0270 
 152   0.0000       2.174220        59.1635 
 153   0.0000       2.221599        60.4528 
 154   0.0000       2.248338        61.1804 
 155   0.0000       2.252066        61.2818 
 156   0.0000       2.254584        61.3503 
 157   0.0000       2.257980        61.4428 
 158   0.0000       2.282959        62.1225 
 159   0.0000       2.302121        62.6439 
 160   0.0000       2.323090        63.2145 
 161   0.0000       2.346171        63.8426 
 162   0.0000       2.376561        64.6695 
 163   0.0000       2.379079        64.7380 
 164   0.0000       2.389740        65.0281 
 165   0.0000       2.398032        65.2538 
 166   0.0000       2.417699        65.7889 
 167   0.0000       2.442484        66.4634 
 168   0.0000       2.458693        66.9044 
 169   0.0000       2.470569        67.2276 
 170   0.0000       2.475428        67.3598 
 171   0.0000       2.482294        67.5466 
 172   0.0000       2.520057        68.5742 
 173   0.0000       2.526851        68.7591 
 174   0.0000       2.535842        69.0038 
 175   0.0000       2.543854        69.2218 
 176   0.0000       2.550076        69.3911 
 177   0.0000       2.567098        69.8543 
 178   0.0000       2.592910        70.5567 
 179   0.0000       2.596149        70.6448 
 180   0.0000       2.614435        71.1424 
 181   0.0000       2.629903        71.5633 
 182   0.0000       2.661631        72.4267 
 183   0.0000       2.671163        72.6860 
 184   0.0000       2.676344        72.8270 
 185   0.0000       2.677566        72.8603 
 186   0.0000       2.689656        73.1893 
 187   0.0000       2.709279        73.7232 
 188   0.0000       2.725614        74.1677 
 189   0.0000       2.790183        75.9247 
 190   0.0000       2.859804        77.8192 
 191   0.0000       2.876015        78.2604 
 192   0.0000       2.933403        79.8220 
 193   0.0000       2.938315        79.9556 
 194   0.0000       2.996082        81.5275 
 195   0.0000       3.008473        81.8647 
 196   0.0000       3.024711        82.3066 
 197   0.0000       3.048214        82.9461 
 198   0.0000       3.067585        83.4732 
 199   0.0000       3.078648        83.7743 
 200   0.0000       3.097421        84.2851 
 201   0.0000       3.109995        84.6273 
 202   0.0000       3.130043        85.1728 
 203   0.0000       3.148681        85.6800 
 204   0.0000       3.173424        86.3533 
 205   0.0000       3.181274        86.5669 
 206   0.0000       3.189701        86.7962 
 207   0.0000       3.201775        87.1247 
 208   0.0000       3.205113        87.2156 
 209   0.0000       3.208454        87.3065 
 210   0.0000       3.245178        88.3058 
 211   0.0000       3.261256        88.7433 
 212   0.0000       3.304951        89.9323 
 213   0.0000       3.328867        90.5831 
 214   0.0000       3.331868        90.6647 
 215   0.0000       3.335245        90.7566 
 216   0.0000       3.360353        91.4398 
 217   0.0000       3.361952        91.4834 
 218   0.0000       3.383397        92.0669 
 219   0.0000       3.423750        93.1650 
 220   0.0000       3.450443        93.8913 
 221   0.0000       3.457689        94.0885 
 222   0.0000       3.460602        94.1678 
 223   0.0000       3.474966        94.5586 
 224   0.0000       3.488043        94.9145 
 225   0.0000       3.520481        95.7972 
 226   0.0000       3.523624        95.8827 
 227   0.0000       3.526387        95.9579 
 228   0.0000       3.608871        98.2024 
 229   0.0000       3.653053        99.4046 
 230   0.0000       3.739456       101.7558 
 231   0.0000       3.745815       101.9288 
 232   0.0000       3.758214       102.2662 
 233   0.0000       3.801448       103.4427 
 234   0.0000       3.811776       103.7237 
 235   0.0000       3.818364       103.9030 
 236   0.0000       3.824426       104.0679 
 237   0.0000       3.840655       104.5095 
 238   0.0000       3.905962       106.2866 
 239   0.0000       3.908120       106.3454 
 240   0.0000       3.928704       106.9055 
 241   0.0000       3.975521       108.1794 
 242   0.0000       4.081257       111.0567 
 243   0.0000       4.094612       111.4201 
 244   0.0000       4.178997       113.7163 
 245   0.0000       4.192944       114.0958 
 246   0.0000       4.199954       114.2866 
 247   0.0000       4.240617       115.3930 
 248   0.0000       4.302934       117.0888 
 249   0.0000       4.319026       117.5267 
 250   0.0000       4.390863       119.4815 
 251   0.0000       4.440651       120.8363 
 252   0.0000       4.478606       121.8691 
 253   0.0000       4.491422       122.2178 
 254   0.0000       4.494925       122.3131 
 255   0.0000       4.507198       122.6471 
 256   0.0000       4.518625       122.9580 
 257   0.0000       4.530422       123.2791 
 258   0.0000       4.586310       124.7998 
 259   0.0000       4.621641       125.7612 
 260   0.0000       4.755335       129.3993 
 261   0.0000       4.818840       131.1273 
 262   0.0000       5.006106       136.2231 
 263   0.0000       5.090201       138.5114 
 264   0.0000      21.995306       598.5227 
 265   0.0000      22.028798       599.4341 
 266   0.0000      22.076581       600.7343 
 267   0.0000      22.161202       603.0370 
 268   0.0000      22.190250       603.8274 
 269   0.0000      22.203215       604.1802 

                    ********************************
                    * MULLIKEN POPULATION ANALYSIS *
                    ********************************

-----------------------
MULLIKEN ATOMIC CHARGES
-----------------------
   0 C :   -0.342660
   1 C :   -0.146706
   2 C :   -0.182738
   3 C :   -0.182738
   4 C :   -0.146707
   5 C :   -0.342660
   6 H :    0.124748
   7 H :    0.110545
   8 H :    0.104246
   9 H :    0.088383
  10 H :    0.084475
  11 H :    0.080838
  12 H :    0.078869
  13 H :    0.080838
  14 H :    0.078869
  15 H :    0.088383
  16 H :    0.084475
  17 H :    0.124748
  18 H :    0.104246
  19 H :    0.110545
Sum of atomic charges:   -0.0000000

--------------------------------
MULLIKEN REDUCED ORBITAL CHARGES
--------------------------------
  0 C s       :     3.239700  s :     3.239700
      pz      :     1.050764  p :     3.048898
      px      :     0.963452
      py      :     1.034682
      dz2     :     0.008137  d :     0.050929
      dxz     :     0.010194
      dyz     :     0.008503
      dx2y2   :     0.007102
      dxy     :     0.016993
      f0      :     0.000372  f :     0.003134
      f+1     :     0.000343
      f-1     :     0.000514
      f+2     :     0.000252
      f-2     :     0.000341
      f+3     :     0.000831
      f-3     :     0.000481
  1 C s       :     3.174571  s :     3.174571
      pz      :     1.001143  p :     2.872906
      px      :     0.917448
      py      :     0.954315
      dz2     :     0.009324  d :     0.093854
      dxz     :     0.016069
      dyz     :     0.021283
      dx2y2   :     0.024185
      dxy     :     0.022993
      f0      :     0.000662  f :     0.005375
      f+1     :     0.000454
      f-1     :     0.000573
      f+2     :     0.000276
      f-2     :     0.000965
      f+3     :     0.001276
      f-3     :     0.001169
  2 C s       :     3.184166  s :     3.184166
      pz      :     1.010969  p :     2.903618
      px      :     0.936077
      py      :     0.956572
      dz2     :     0.008556  d :     0.089615
      dxz     :     0.015547
      dyz     :     0.022049
      dx2y2   :     0.023775
      dxy     :     0.019688
      f0      :     0.000661  f :     0.005339
      f+1     :     0.000450
      f-1     :     0.000574
      f+2     :     0.000278
      f-2     :     0.000976
      f+3     :     0.001226
      f-3     :     0.001173
  3 C s       :     3.184166  s :     3.184166
      pz      :     1.010969  p :     2.903618
      px      :     0.936077
      py      :     0.956571
      dz2     :     0.008556  d :     0.089615
      dxz     :     0.015547
      dyz     :     0.022049
      dx2y2   :     0.023775
      dxy     :     0.019688
      f0      :     0.000661  f :     0.005339
      f+1     :     0.000450
      f-1     :     0.000574
      f+2     :     0.000278
      f-2     :     0.000976
      f+3     :     0.001226
      f-3     :     0.001173
  4 C s       :     3.174571  s :     3.174571
      pz      :     1.001143  p :     2.872906
      px      :     0.917448
      py      :     0.954315
      dz2     :     0.009324  d :     0.093854
      dxz     :     0.016069
      dyz     :     0.021283
      dx2y2   :     0.024185
      dxy     :     0.022993
      f0      :     0.000662  f :     0.005375
      f+1     :     0.000454
      f-1     :     0.000573
      f+2     :     0.000276
      f-2     :     0.000965
      f+3     :     0.001276
      f-3     :     0.001169
  5 C s       :     3.239699  s :     3.239699
      pz      :     1.050764  p :     3.048898
      px      :     0.963452
      py      :     1.034682
      dz2     :     0.008137  d :     0.050929
      dxz     :     0.010194
      dyz     :     0.008503
      dx2y2   :     0.007102
      dxy     :     0.016993
      f0      :     0.000372  f :     0.003134
      f+1     :     0.000343
      f-1     :     0.000514
      f+2     :     0.000252
      f-2     :     0.000341
      f+3     :     0.000831
      f-3     :     0.000481
  6 H s       :     0.854387  s :     0.854387
      pz      :     0.004644  p :     0.020866
      px      :     0.008104
      py      :     0.008117
  7 H s       :     0.868656  s :     0.868656
      pz      :     0.007193  p :     0.020799
      px      :     0.005614
      py      :     0.007991
  8 H s       :     0.875199  s :     0.875199
      pz      :     0.010332  p :     0.020555
      px      :     0.004498
      py      :     0.005724
  9 H s       :     0.890849  s :     0.890849
      pz      :     0.007023  p :     0.020768
      px      :     0.005101
      py      :     0.008644
 10 H s       :     0.894766  s :     0.894766
      pz      :     0.010159  p :     0.020759
      px      :     0.004444
      py      :     0.006156
 11 H s       :     0.898331  s :     0.898331
      pz      :     0.007003  p :     0.020831
      px      :     0.005164
      py      :     0.008664
 12 H s       :     0.900439  s :     0.900439
      pz      :     0.010101  p :     0.020692
      px      :     0.004429
      py      :     0.006162
 13 H s       :     0.898331  s :     0.898331
      pz      :     0.007003  p :     0.020831
      px      :     0.005164
      py      :     0.008664
 14 H s       :     0.900439  s :     0.900439
      pz      :     0.010101  p :     0.020692
      px      :     0.004429
      py      :     0.006162
 15 H s       :     0.890849  s :     0.890849
      pz      :     0.007023  p :     0.020768
      px      :     0.005101
      py      :     0.008644
 16 H s       :     0.894766  s :     0.894766
      pz      :     0.010159  p :     0.020759
      px      :     0.004444
      py      :     0.006156
 17 H s       :     0.854387  s :     0.854387
      pz      :     0.004644  p :     0.020866
      px      :     0.008104
      py      :     0.008117
 18 H s       :     0.875199  s :     0.875199
      pz      :     0.010332  p :     0.020555
      px      :     0.004498
      py      :     0.005724
 19 H s       :     0.868656  s :     0.868656
      pz      :     0.007193  p :     0.020799
      px      :     0.005614
      py      :     0.007991


                     *******************************
                     * LOEWDIN POPULATION ANALYSIS *
                     *******************************

----------------------
LOEWDIN ATOMIC CHARGES
----------------------
   0 C :   -0.325035
   1 C :   -0.302282
   2 C :   -0.276852
   3 C :   -0.276852
   4 C :   -0.302282
   5 C :   -0.325035
   6 H :    0.121128
   7 H :    0.120457
   8 H :    0.120171
   9 H :    0.134855
  10 H :    0.134748
  11 H :    0.136519
  12 H :    0.136291
  13 H :    0.136519
  14 H :    0.136291
  15 H :    0.134855
  16 H :    0.134748
  17 H :    0.121128
  18 H :    0.120171
  19 H :    0.120457

-------------------------------
LOEWDIN REDUCED ORBITAL CHARGES
-------------------------------
  0 C s       :     2.842041  s :     2.842041
      pz      :     1.075536  p :     3.198600
      px      :     1.050009
      py      :     1.073054
      dz2     :     0.049433  d :     0.260112
      dxz     :     0.043120
      dyz     :     0.045111
      dx2y2   :     0.039554
      dxy     :     0.082893
      f0      :     0.002357  f :     0.024282
      f+1     :     0.003850
      f-1     :     0.002424
      f+2     :     0.004232
      f-2     :     0.002662
      f+3     :     0.005427
      f-3     :     0.003329
  1 C s       :     2.788521  s :     2.788521
      pz      :     1.029674  p :     3.073478
      px      :     1.018618
      py      :     1.025187
      dz2     :     0.054912  d :     0.402081
      dxz     :     0.062267
      dyz     :     0.090162
      dx2y2   :     0.097383
      dxy     :     0.097356
      f0      :     0.004209  f :     0.038202
      f+1     :     0.004394
      f-1     :     0.003169
      f+2     :     0.004500
      f-2     :     0.006295
      f+3     :     0.008231
      f-3     :     0.007404
  2 C s       :     2.785709  s :     2.785709
      pz      :     1.026585  p :     3.054755
      px      :     1.006062
      py      :     1.022109
      dz2     :     0.055047  d :     0.398437
      dxz     :     0.060522
      dyz     :     0.090912
      dx2y2   :     0.095910
      dxy     :     0.096046
      f0      :     0.004167  f :     0.037950
      f+1     :     0.004322
      f-1     :     0.003163
      f+2     :     0.004490
      f-2     :     0.006339
      f+3     :     0.008010
      f-3     :     0.007461
  3 C s       :     2.785709  s :     2.785709
      pz      :     1.026585  p :     3.054755
      px      :     1.006062
      py      :     1.022109
      dz2     :     0.055047  d :     0.398437
      dxz     :     0.060522
      dyz     :     0.090912
      dx2y2   :     0.095910
      dxy     :     0.096046
      f0      :     0.004167  f :     0.037950
      f+1     :     0.004322
      f-1     :     0.003163
      f+2     :     0.004490
      f-2     :     0.006339
      f+3     :     0.008010
      f-3     :     0.007461
  4 C s       :     2.788521  s :     2.788521
      pz      :     1.029674  p :     3.073478
      px      :     1.018618
      py      :     1.025187
      dz2     :     0.054912  d :     0.402081
      dxz     :     0.062267
      dyz     :     0.090162
      dx2y2   :     0.097383
      dxy     :     0.097356
      f0      :     0.004209  f :     0.038202
      f+1     :     0.004394
      f-1     :     0.003169
      f+2     :     0.004500
      f-2     :     0.006295
      f+3     :     0.008231
      f-3     :     0.007404
  5 C s       :     2.842041  s :     2.842041
      pz      :     1.075536  p :     3.198600
      px      :     1.050009
      py      :     1.073054
      dz2     :     0.049433  d :     0.260112
      dxz     :     0.043120
      dyz     :     0.045111
      dx2y2   :     0.039554
      dxy     :     0.082893
      f0      :     0.002357  f :     0.024282
      f+1     :     0.003850
      f-1     :     0.002424
      f+2     :     0.004232
      f-2     :     0.002662
      f+3     :     0.005427
      f-3     :     0.003329
  6 H s       :     0.818302  s :     0.818302
      pz      :     0.013410  p :     0.060571
      px      :     0.021740
      py      :     0.025420
  7 H s       :     0.819190  s :     0.819190
      pz      :     0.021533  p :     0.060353
      px      :     0.014990
      py      :     0.023830
  8 H s       :     0.819493  s :     0.819493
      pz      :     0.031034  p :     0.060336
      px      :     0.012777
      py      :     0.016524
  9 H s       :     0.807270  s :     0.807270
      pz      :     0.020786  p :     0.057876
      px      :     0.014335
      py      :     0.022755
 10 H s       :     0.807435  s :     0.807435
      pz      :     0.029304  p :     0.057817
      px      :     0.012505
      py      :     0.016008
 11 H s       :     0.805624  s :     0.805624
      pz      :     0.020615  p :     0.057857
      px      :     0.014255
      py      :     0.022987
 12 H s       :     0.805934  s :     0.805934
      pz      :     0.029211  p :     0.057775
      px      :     0.012459
      py      :     0.016105
 13 H s       :     0.805624  s :     0.805624
      pz      :     0.020615  p :     0.057857
      px      :     0.014255
      py      :     0.022987
 14 H s       :     0.805934  s :     0.805934
      pz      :     0.029211  p :     0.057775
      px      :     0.012459
      py      :     0.016105
 15 H s       :     0.807270  s :     0.807270
      pz      :     0.020786  p :     0.057876
      px      :     0.014335
      py      :     0.022755
 16 H s       :     0.807435  s :     0.807435
      pz      :     0.029304  p :     0.057817
      px      :     0.012505
      py      :     0.016008
 17 H s       :     0.818302  s :     0.818302
      pz      :     0.013410  p :     0.060571
      px      :     0.021740
      py      :     0.025420
 18 H s       :     0.819493  s :     0.819493
      pz      :     0.031034  p :     0.060336
      px      :     0.012777
      py      :     0.016524
 19 H s       :     0.819190  s :     0.819190
      pz      :     0.021533  p :     0.060353
      px      :     0.014990
      py      :     0.023830


                      *****************************
                      * MAYER POPULATION ANALYSIS *
                      *****************************

  NA   - Mulliken gross atomic population
  ZA   - Total nuclear charge
  QA   - Mulliken gross atomic charge
  VA   - Mayer's total valence
  BVA  - Mayer's bonded valence
  FA   - Mayer's free valence

  ATOM       NA         ZA         QA         VA         BVA        FA
  0 C      6.3427     6.0000    -0.3427     3.9202     3.9202     0.0000
  1 C      6.1467     6.0000    -0.1467     3.9540     3.9540     0.0000
  2 C      6.1827     6.0000    -0.1827     3.9837     3.9837    -0.0000
  3 C      6.1827     6.0000    -0.1827     3.9837     3.9837    -0.0000
  4 C      6.1467     6.0000    -0.1467     3.9540     3.9540    -0.0000
  5 C      6.3427     6.0000    -0.3427     3.9202     3.9202    -0.0000
  6 H      0.8753     1.0000     0.1247     0.9639     0.9639     0.0000
  7 H      0.8895     1.0000     0.1105     0.9707     0.9707    -0.0000
  8 H      0.8958     1.0000     0.1042     0.9764     0.9764     0.0000
  9 H      0.9116     1.0000     0.0884     0.9666     0.9666    -0.0000
 10 H      0.9155     1.0000     0.0845     0.9706     0.9706    -0.0000
 11 H      0.9192     1.0000     0.0808     0.9722     0.9722     0.0000
 12 H      0.9211     1.0000     0.0789     0.9751     0.9751    -0.0000
 13 H      0.9192     1.0000     0.0808     0.9722     0.9722    -0.0000
 14 H      0.9211     1.0000     0.0789     0.9751     0.9751    -0.0000
 15 H      0.9116     1.0000     0.0884     0.9666     0.9666    -0.0000
 16 H      0.9155     1.0000     0.0845     0.9706     0.9706     0.0000
 17 H      0.8753     1.0000     0.1247     0.9639     0.9639     0.0000
 18 H      0.8958     1.0000     0.1042     0.9764     0.9764     0.0000
 19 H      0.8895     1.0000     0.1105     0.9707     0.9707    -0.0000

  Mayer bond orders larger than 0.1
B(  0-C ,  1-C ) :   1.0127 B(  0-C , 17-H ) :   0.9673 B(  0-C , 18-H ) :   0.9644 
B(  0-C , 19-H ) :   0.9666 B(  1-C ,  2-C ) :   1.0357 B(  1-C , 15-H ) :   0.9512 
B(  1-C , 16-H ) :   0.9479 B(  2-C ,  3-C ) :   1.0324 B(  2-C , 13-H ) :   0.9465 
B(  2-C , 14-H ) :   0.9441 B(  3-C ,  4-C ) :   1.0357 B(  3-C , 11-H ) :   0.9465 
B(  3-C , 12-H ) :   0.9441 B(  4-C ,  5-C ) :   1.0127 B(  4-C ,  9-H ) :   0.9512 
B(  4-C , 10-H ) :   0.9479 B(  5-C ,  6-H ) :   0.9673 B(  5-C ,  7-H ) :   0.9666 
B(  5-C ,  8-H ) :   0.9644 

-------
TIMINGS
-------

Total SCF time: 0 days 0 hours 0 min 25 sec 

Total time                  ....      25.433 sec
Sum of individual times     ....      25.078 sec  ( 98.6%)

Fock matrix formation       ....      20.591 sec  ( 81.0%)
  Split-RI-J                ....       9.667 sec  ( 46.9% of F)
  XC integration            ....      10.282 sec  ( 49.9% of F)
    Basis function eval.    ....       3.901 sec  ( 37.9% of XC)
    Density eval.           ....       1.648 sec  ( 16.0% of XC)
    XC-Functional eval.     ....       0.351 sec  (  3.4% of XC)
    XC-Potential eval.      ....       3.973 sec  ( 38.6% of XC)
Diagonalization             ....       0.159 sec  (  0.6%)
Density matrix formation    ....       0.010 sec  (  0.0%)
Population analysis         ....       0.061 sec  (  0.2%)
Initial guess               ....       1.277 sec  (  5.0%)
Orbital Transformation      ....       0.000 sec  (  0.0%)
Orbital Orthonormalization  ....       0.000 sec  (  0.0%)
DIIS solution               ....       0.084 sec  (  0.3%)
SOSCF solution              ....       0.086 sec  (  0.3%)
Grid generation             ....       2.809 sec  ( 11.0%)

-------------------------   --------------------
FINAL SINGLE POINT ENERGY      -236.811739619117
-------------------------   --------------------


                            ***************************************
                            *     ORCA property calculations      *
                            ***************************************

                                    ---------------------
                                    Active property flags
                                    ---------------------
   (+) Dipole Moment


------------------------------------------------------------------------------
                       ORCA ELECTRIC PROPERTIES CALCULATION
------------------------------------------------------------------------------

Dipole Moment Calculation                       ... on
Quadrupole Moment Calculation                   ... off
Polarizability Calculation                      ... off
GBWName                                         ... freq.gbw
Electron density file                           ... freq.scfp.tmp
The origin for moment calculation is the CENTER OF MASS  = ( 5.826127, -0.753879  1.217268)

-------------
DIPOLE MOMENT
-------------
                                X             Y             Z
Electronic contribution:      0.00000      -0.00000      -0.00000
Nuclear contribution   :     -0.00000       0.00000       0.00000
                        -----------------------------------------
Total Dipole Moment    :      0.00000       0.00000      -0.00000
                        -----------------------------------------
Magnitude (a.u.)       :      0.00000
Magnitude (Debye)      :      0.00000


-------------------------------------------------------------------------------
                               ORCA SCF HESSIAN
-------------------------------------------------------------------------------

Hessian of the Kohn-Sham DFT energy:
Kohn-Sham wavefunction type                      ... RKS
Hartree-Fock exchange scaling                    ...    0.000
Number of operators                              ...    1
Number of atoms                                  ...   20
Basis set dimensions                             ...  270
Integral neglect threshold                       ... 1.0e-10
Integral primitive cutoff                        ... 1.0e-11

Setting up DFT Hessian calculations              ... 
Electron density on the grid                     ... found on disk
Electron density on the final grid               ... found on disk
Building xc-kernel on the grid                   ... done   (      0.1 sec)
Building xc-kernel on the final grid             ... done   (      0.2 sec)
                                                     done   (      0.5 sec)

Nuclear repulsion Hessian                        ... done   (      0.0 sec)

----------------------------------------------
Forming right-hand sides of CP-SCF equations     ...
----------------------------------------------
One electron integral derivatives                ... done   (      0.6 sec)
Transforming the overlap derivative matrices     ... done   (      0.4 sec)
Making the Q(x) pseudodensities                  ... done   (      0.2 sec)
Adding the E*S(x)*S(y) terms to the Hessian      ... done   (      0.2 sec)
Calculating energy weighted overlap derivatives  ... done   (      1.0 sec)
Two electron integral derivatives (RI)           ... done   (      8.1 sec)
Exchange-correlation integral derivatives        ... done   (    182.2 sec)
tr(F(y)Q(x)) contribution to the Hessian         ... done   (      0.1 sec)
Response fock operator R(S(x)) (RI)              ... done   (     45.5 sec)
XC Response fock operator R(S(x))                ... done   (     78.4 sec)
tr(F(y)S(x)) contribution to the Hessian         ... done   (      0.1 sec)
Transforming and finalizing RHSs                 ... done   (      0.4 sec)

----------------------------------------------
Solving the CP-SCF equations (RI)                ...
----------------------------------------------
     CP-SCF ITERATION   0: 
     CP-SCF ITERATION   1:      0.000622765745
     CP-SCF ITERATION   2:      0.000030132141
     CP-SCF ITERATION   3:      0.000003026492
     CP-SCF ITERATION   4:      0.000000933227

                                                 ... done   (    458.0 sec)
Forming perturbed density Hessian contributions  ... done   (      0.5 sec)
Making the perturbed densities                   ... done   (      0.4 sec)
2nd integral derivative contribs (RI)            ... done   (     33.7 sec)
Exchange-correlation Hessian                     ... done   (     99.1 sec)
Dipol derivatives                                ... done   (      4.1 sec)

Total SCF Hessian time: 0 days 0 hours 15 min 13 sec 

Writing the Hessian file to the disk             ... done


-----------------------
VIBRATIONAL FREQUENCIES
-----------------------

   0:         0.00 cm**-1
   1:         0.00 cm**-1
   2:         0.00 cm**-1
   3:         0.00 cm**-1
   4:         0.00 cm**-1
   5:         0.00 cm**-1
   6:        71.14 cm**-1
   7:        95.19 cm**-1
   8:       124.69 cm**-1
   9:       145.48 cm**-1
  10:       231.45 cm**-1
  11:       242.45 cm**-1
  12:       286.37 cm**-1
  13:       356.72 cm**-1
  14:       450.36 cm**-1
  15:       710.91 cm**-1
  16:       723.74 cm**-1
  17:       781.10 cm**-1
  18:       873.17 cm**-1
  19:       877.61 cm**-1
  20:       881.96 cm**-1
  21:       980.37 cm**-1
  22:       999.75 cm**-1
  23:      1029.98 cm**-1
  24:      1052.11 cm**-1
  25:      1053.64 cm**-1
  26:      1126.66 cm**-1
  27:      1163.08 cm**-1
  28:      1208.63 cm**-1
  29:      1226.14 cm**-1
  30:      1263.51 cm**-1
  31:      1284.56 cm**-1
  32:      1290.29 cm**-1
  33:      1291.02 cm**-1
  34:      1335.91 cm**-1
  35:      1343.38 cm**-1
  36:      1356.31 cm**-1
  37:      1359.66 cm**-1
  38:      1429.17 cm**-1
  39:      1430.06 cm**-1
  40:      1437.77 cm**-1
  41:      1445.81 cm**-1
  42:      1446.13 cm**-1
  43:      1446.21 cm**-1
  44:      1454.68 cm**-1
  45:      1459.89 cm**-1
  46:      2929.41 cm**-1
  47:      2934.35 cm**-1
  48:      2946.07 cm**-1
  49:      2949.89 cm**-1
  50:      2950.06 cm**-1
  51:      2961.46 cm**-1
  52:      2961.59 cm**-1
  53:      2962.81 cm**-1
  54:      2979.71 cm**-1
  55:      2991.58 cm**-1
  56:      3027.09 cm**-1
  57:      3027.50 cm**-1
  58:      3033.70 cm**-1
  59:      3033.71 cm**-1


------------
NORMAL MODES
------------

These modes are the cartesian displacements weighted by the diagonal matrix
M(i,i)=1/sqrt(m[i]) where m[i] is the mass of the displaced atom
Thus, these vectors are normalized but *not* orthogonal

                  0          1          2          3          4          5    
      0       0.000000   0.000000   0.000000   0.000000   0.000000   0.000000
      1       0.000000   0.000000   0.000000   0.000000   0.000000   0.000000
      2       0.000000   0.000000   0.000000   0.000000   0.000000   0.000000
      3       0.000000   0.000000   0.000000   0.000000   0.000000   0.000000
      4       0.000000   0.000000   0.000000   0.000000   0.000000   0.000000
      5       0.000000   0.000000   0.000000   0.000000   0.000000   0.000000
      6       0.000000   0.000000   0.000000   0.000000   0.000000   0.000000
      7       0.000000   0.000000   0.000000   0.000000   0.000000   0.000000
      8       0.000000   0.000000   0.000000   0.000000   0.000000   0.000000
      9       0.000000   0.000000   0.000000   0.000000   0.000000   0.000000
     10       0.000000   0.000000   0.000000   0.000000   0.000000   0.000000
     11       0.000000   0.000000   0.000000   0.000000   0.000000   0.000000
     12       0.000000   0.000000   0.000000   0.000000   0.000000   0.000000
     13       0.000000   0.000000   0.000000   0.000000   0.000000   0.000000
     14       0.000000   0.000000   0.000000   0.000000   0.000000   0.000000
     15       0.000000   0.000000   0.000000   0.000000   0.000000   0.000000
     16       0.000000   0.000000   0.000000   0.000000   0.000000   0.000000
     17       0.000000   0.000000   0.000000   0.000000   0.000000   0.000000
     18       0.000000   0.000000   0.000000   0.000000   0.000000   0.000000
     19       0.000000   0.000000   0.000000   0.000000   0.000000   0.000000
     20       0.000000   0.000000   0.000000   0.000000   0.000000   0.000000
     21       0.000000   0.000000   0.000000   0.000000   0.000000   0.000000
     22       0.000000   0.000000   0.000000   0.000000   0.000000   0.000000
     23       0.000000   0.000000   0.000000   0.000000   0.000000   0.000000
     24       0.000000   0.000000   0.000000   0.000000   0.000000   0.000000
     25       0.000000   0.000000   0.000000   0.000000   0.000000   0.000000
     26       0.000000   0.000000   0.000000   0.000000   0.000000   0.000000
     27       0.000000   0.000000   0.000000   0.000000   0.000000   0.000000
     28       0.000000   0.000000   0.000000   0.000000   0.000000   0.000000
     29       0.000000   0.000000   0.000000   0.000000   0.000000   0.000000
     30       0.000000   0.000000   0.000000   0.000000   0.000000   0.000000
     31       0.000000   0.000000   0.000000   0.000000   0.000000   0.000000
     32       0.000000   0.000000   0.000000   0.000000   0.000000   0.000000
     33       0.000000   0.000000   0.000000   0.000000   0.000000   0.000000
     34       0.000000   0.000000   0.000000   0.000000   0.000000   0.000000
     35       0.000000   0.000000   0.000000   0.000000   0.000000   0.000000
     36       0.000000   0.000000   0.000000   0.000000   0.000000   0.000000
     37       0.000000   0.000000   0.000000   0.000000   0.000000   0.000000
     38       0.000000   0.000000   0.000000   0.000000   0.000000   0.000000
     39       0.000000   0.000000   0.000000   0.000000   0.000000   0.000000
     40       0.000000   0.000000   0.000000   0.000000   0.000000   0.000000
     41       0.000000   0.000000   0.000000   0.000000   0.000000   0.000000
     42       0.000000   0.000000   0.000000   0.000000   0.000000   0.000000
     43       0.000000   0.000000   0.000000   0.000000   0.000000   0.000000
     44       0.000000   0.000000   0.000000   0.000000   0.000000   0.000000
     45       0.000000   0.000000   0.000000   0.000000   0.000000   0.000000
     46       0.000000   0.000000   0.000000   0.000000   0.000000   0.000000
     47       0.000000   0.000000   0.000000   0.000000   0.000000   0.000000
     48       0.000000   0.000000   0.000000   0.000000   0.000000   0.000000
     49       0.000000   0.000000   0.000000   0.000000   0.000000   0.000000
     50       0.000000   0.000000   0.000000   0.000000   0.000000   0.000000
     51       0.000000   0.000000   0.000000   0.000000   0.000000   0.000000
     52       0.000000   0.000000   0.000000   0.000000   0.000000   0.000000
     53       0.000000   0.000000   0.000000   0.000000   0.000000   0.000000
     54       0.000000   0.000000   0.000000   0.000000   0.000000   0.000000
     55       0.000000   0.000000   0.000000   0.000000   0.000000   0.000000
     56       0.000000   0.000000   0.000000   0.000000   0.000000   0.000000
     57       0.000000   0.000000   0.000000   0.000000   0.000000   0.000000
     58       0.000000   0.000000   0.000000   0.000000   0.000000   0.000000
     59       0.000000   0.000000   0.000000   0.000000   0.000000   0.000000
                  6          7          8          9         10         11    
      0       0.044060   0.003713  -0.022739  -0.018524   0.001811  -0.001405
      1       0.035629   0.009410   0.195726  -0.015755   0.002887  -0.000979
      2      -0.187371  -0.017001   0.032676   0.079168  -0.011260   0.006726
      3      -0.020200   0.024596   0.066308   0.023649  -0.012902   0.013559
      4      -0.016189   0.017681  -0.057380   0.020015  -0.011674   0.011497
      5       0.083775  -0.095881   0.010864  -0.100775   0.053574  -0.056617
      6      -0.027895  -0.029190  -0.044821   0.037782   0.001930  -0.011154
      7      -0.022620  -0.028563  -0.167119   0.031998   0.000975  -0.009721
      8       0.120824   0.116262  -0.049616  -0.160083  -0.007781   0.045744
      9      -0.027895  -0.029190  -0.044821  -0.037782  -0.001930  -0.011154
     10      -0.022620  -0.028563  -0.167119  -0.031997  -0.000975  -0.009721
     11       0.120824   0.116262  -0.049616   0.160083   0.007781   0.045744
     12      -0.020200   0.024596   0.066308  -0.023649   0.012902   0.013559
     13      -0.016189   0.017681  -0.057380  -0.020015   0.011674   0.011497
     14       0.083775  -0.095881   0.010864   0.100775  -0.053574  -0.056617
     15       0.044060   0.003713  -0.022739   0.018524  -0.001811  -0.001405
     16       0.035629   0.009410   0.195726   0.015755  -0.002887  -0.000979
     17      -0.187371  -0.017001   0.032676  -0.079168   0.011260   0.006726
     18       0.044262   0.059587   0.125589   0.016137  -0.094808  -0.089610
     19       0.035756   0.058004   0.326392   0.013686  -0.083747  -0.077675
     20      -0.196692  -0.235878   0.103648  -0.071650   0.403684   0.384081
     21      -0.063126  -0.066714  -0.139763  -0.051654   0.200608   0.192403
     22      -0.050728   0.199725   0.227699  -0.054911  -0.266654  -0.253544
     23      -0.344951   0.160617   0.004213  -0.198200  -0.176082  -0.172626
     24       0.203499   0.001494  -0.137332   0.127405  -0.126097  -0.122149
     25       0.163928  -0.236714   0.250294   0.119017   0.327770   0.316236
     26      -0.239309   0.087481   0.007762  -0.121214  -0.130591  -0.129345
     27       0.088611   0.072339   0.163375   0.056429   0.002454   0.019417
     28       0.049209  -0.132024  -0.071812  -0.003194  -0.024380  -0.051260
     29       0.214329  -0.246897   0.041847   0.159825  -0.100720  -0.126690
     30      -0.170240   0.039569   0.163050  -0.119375   0.039261   0.033940
     31      -0.115016   0.214433  -0.091364  -0.050405   0.061317   0.095455
     32       0.120685  -0.185373   0.032219   0.109029  -0.074778  -0.093836
     33      -0.043948  -0.095351  -0.078425   0.061172  -0.022833  -0.046560
     34      -0.018235   0.073667  -0.156268   0.103957   0.051860   0.054547
     35       0.117338   0.202295  -0.055178   0.368565   0.059320   0.103258
     36      -0.010981  -0.000418  -0.081580  -0.205169  -0.001873   0.000653
     37      -0.027026  -0.159562  -0.142088  -0.226125  -0.070538  -0.093251
     38       0.123322   0.177479  -0.062108   0.239326   0.039682   0.084573
     39      -0.043948  -0.095351  -0.078425  -0.061172   0.022833  -0.046560
     40      -0.018235   0.073667  -0.156268  -0.103957  -0.051860   0.054547
     41       0.117338   0.202295  -0.055179  -0.368565  -0.059320   0.103258
     42      -0.010980  -0.000418  -0.081580   0.205169   0.001873   0.000653
     43      -0.027026  -0.159562  -0.142087   0.226125   0.070538  -0.093251
     44       0.123322   0.177478  -0.062109  -0.239326  -0.039682   0.084573
     45       0.088611   0.072339   0.163375  -0.056429  -0.002454   0.019417
     46       0.049209  -0.132023  -0.071812   0.003194   0.024380  -0.051260
     47       0.214329  -0.246897   0.041847  -0.159825   0.100719  -0.126690
     48      -0.170240   0.039569   0.163050   0.119375  -0.039261   0.033940
     49      -0.115016   0.214433  -0.091363   0.050405  -0.061317   0.095455
     50       0.120685  -0.185373   0.032218  -0.109029   0.074778  -0.093836
     51       0.044262   0.059587   0.125589  -0.016137   0.094808  -0.089610
     52       0.035756   0.058003   0.326392  -0.013686   0.083747  -0.077675
     53      -0.196692  -0.235878   0.103649   0.071650  -0.403683   0.384082
     54       0.203499   0.001494  -0.137332  -0.127405   0.126096  -0.122149
     55       0.163928  -0.236714   0.250294  -0.119017  -0.327769   0.316236
     56      -0.239309   0.087481   0.007762   0.121214   0.130591  -0.129345
     57      -0.063126  -0.066714  -0.139762   0.051654  -0.200607   0.192403
     58      -0.050727   0.199725   0.227699   0.054911   0.266654  -0.253545
     59      -0.344951   0.160617   0.004213   0.198200   0.176082  -0.172626
                 12         13         14         15         16         17    
      0       0.162000  -0.173537  -0.127820  -0.000890  -0.002680   0.006724
      1      -0.100993  -0.017332   0.027213  -0.000607  -0.001995   0.005435
      2       0.017778  -0.044188  -0.024691   0.003418   0.010303  -0.027301
      3       0.057561  -0.185867  -0.036269  -0.006171  -0.012256   0.012232
      4       0.142143   0.133490  -0.112896  -0.005070  -0.010256   0.010411
      5       0.042640  -0.017039  -0.031643   0.026240   0.052030  -0.052326
      6      -0.014080  -0.082775   0.171886  -0.009305  -0.006636  -0.011816
      7       0.096032   0.133721   0.064271  -0.008107  -0.005864  -0.009851
      8       0.015742   0.007251   0.053891   0.039328   0.028325   0.049296
      9       0.014080   0.082775   0.171886  -0.009305   0.006636  -0.011816
     10      -0.096032  -0.133721   0.064271  -0.008107   0.005864  -0.009851
     11      -0.015742  -0.007251   0.053891   0.039328  -0.028325   0.049296
     12      -0.057561   0.185867  -0.036268  -0.006172   0.012256   0.012232
     13      -0.142143  -0.133490  -0.112896  -0.005070   0.010256   0.010411
     14      -0.042640   0.017039  -0.031643   0.026240  -0.052030  -0.052326
     15      -0.162000   0.173537  -0.127820  -0.000890   0.002680   0.006724
     16       0.100993   0.017332   0.027213  -0.000607   0.001995   0.005435
     17      -0.017778   0.044188  -0.024691   0.003418  -0.010303  -0.027301
     18       0.034447   0.246417   0.060772   0.005227  -0.015498  -0.028085
     19       0.275224   0.081096   0.195467   0.004701  -0.013763  -0.024820
     20       0.069084   0.074712   0.054436  -0.026675   0.072797   0.127245
     21      -0.317906   0.116803  -0.280952  -0.060267   0.136576   0.211274
     22       0.156396   0.035647   0.087651  -0.039437   0.069138   0.084865
     23      -0.041579   0.034078  -0.041516  -0.074930   0.142834   0.180747
     24      -0.319583   0.117088  -0.278526   0.083842  -0.179211  -0.261351
     25       0.166856   0.037261   0.092226   0.058645  -0.104600  -0.126796
     26      -0.047829   0.034524  -0.054112  -0.021224   0.033771   0.027578
     27      -0.019756   0.266507  -0.087413   0.024992   0.014633   0.142324
     28      -0.141335  -0.151114  -0.084453  -0.202217   0.277673   0.156426
     29      -0.024745   0.035389  -0.027228  -0.192379   0.267653   0.189143
     30      -0.016082   0.267230  -0.082990   0.043630  -0.105220  -0.196011
     31      -0.137591  -0.149910  -0.079105   0.259832  -0.353815  -0.202061
     32      -0.041131   0.029933  -0.047463  -0.095214   0.112738   0.037805
     33       0.097739   0.162341   0.289493  -0.037740  -0.086799  -0.155000
     34      -0.113626  -0.144891   0.022800  -0.271848   0.172259  -0.135278
     35       0.004290   0.018063   0.065983  -0.289412   0.122872  -0.173963
     36       0.098651   0.165335   0.286701   0.135328   0.039191   0.201766
     37      -0.113733  -0.141553   0.020557   0.354569  -0.211806   0.176232
     38      -0.002111   0.001900   0.079012  -0.122184   0.075186  -0.027136
     39      -0.097739  -0.162341   0.289493  -0.037740   0.086799  -0.155000
     40       0.113626   0.144891   0.022800  -0.271847  -0.172260  -0.135278
     41      -0.004290  -0.018063   0.065983  -0.289412  -0.122873  -0.173963
     42      -0.098651  -0.165335   0.286701   0.135328  -0.039190   0.201766
     43       0.113733   0.141553   0.020557   0.354568   0.211807   0.176232
     44       0.002111  -0.001900   0.079012  -0.122184  -0.075187  -0.027136
     45       0.019756  -0.266507  -0.087413   0.024992  -0.014632   0.142324
     46       0.141335   0.151114  -0.084453  -0.202216  -0.277674   0.156426
     47       0.024745  -0.035389  -0.027228  -0.192378  -0.267654   0.189144
     48       0.016082  -0.267230  -0.082990   0.043630   0.105220  -0.196011
     49       0.137591   0.149910  -0.079105   0.259831   0.353816  -0.202061
     50       0.041131  -0.029933  -0.047463  -0.095214  -0.112738   0.037805
     51      -0.034448  -0.246417   0.060772   0.005227   0.015498  -0.028085
     52      -0.275224  -0.081096   0.195467   0.004701   0.013763  -0.024820
     53      -0.069084  -0.074712   0.054436  -0.026675  -0.072797   0.127245
     54       0.319582  -0.117087  -0.278526   0.083842   0.179211  -0.261351
     55      -0.166856  -0.037261   0.092226   0.058645   0.104600  -0.126796
     56       0.047829  -0.034524  -0.054112  -0.021224  -0.033771   0.027578
     57       0.317906  -0.116803  -0.280952  -0.060267  -0.136576   0.211274
     58      -0.156397  -0.035647   0.087651  -0.039436  -0.069138   0.084865
     59       0.041579  -0.034078  -0.041516  -0.074930  -0.142834   0.180747
                 18         19         20         21         22         23    
      0      -0.126398   0.012653  -0.068504   0.010763   0.164140   0.078196
      1       0.034753   0.007771   0.055561   0.008967   0.079795   0.119117
      2      -0.022559  -0.046013  -0.006533  -0.046376   0.054332   0.042150
      3       0.014409   0.000370  -0.003581  -0.011018  -0.192642  -0.141648
      4       0.111437  -0.001089   0.062905  -0.008969  -0.058649  -0.085685
      5       0.025288  -0.001926   0.011369   0.047328  -0.056886  -0.050452
      6       0.093459  -0.016014  -0.004085   0.003981  -0.180360  -0.008729
      7      -0.103238  -0.010706  -0.118032   0.003127  -0.101895   0.010019
      8       0.001294   0.069509  -0.022157  -0.016562  -0.062778  -0.000026
      9       0.093459   0.016014   0.004085   0.003981   0.180360  -0.008729
     10      -0.103238   0.010707   0.118032   0.003127   0.101895   0.010019
     11       0.001294  -0.069509   0.022157  -0.016562   0.062778  -0.000026
     12       0.014409  -0.000370   0.003581  -0.011018   0.192643  -0.141648
     13       0.111438   0.001089  -0.062905  -0.008969   0.058649  -0.085685
     14       0.025288   0.001926  -0.011369   0.047328   0.056886  -0.050452
     15      -0.126399  -0.012653   0.068504   0.010763  -0.164141   0.078196
     16       0.034753  -0.007771  -0.055561   0.008967  -0.079796   0.119117
     17      -0.022559   0.046013   0.006533  -0.046376  -0.054332   0.042150
     18      -0.465391   0.022056   0.424264  -0.025178  -0.117293  -0.186438
     19      -0.265255   0.022248   0.261575  -0.022288  -0.032996  -0.124422
     20      -0.162029  -0.148972   0.146009   0.112463  -0.035006  -0.067439
     21       0.131294  -0.224600  -0.222672   0.171965  -0.257903   0.358064
     22      -0.090995  -0.092548   0.079837   0.074972  -0.046803  -0.018449
     23      -0.018753  -0.174314  -0.005388   0.124828  -0.068061   0.043832
     24       0.115547   0.280308  -0.188501  -0.204126  -0.256605   0.340341
     25      -0.104670   0.125702   0.101962  -0.100438  -0.046089  -0.033076
     26       0.037689  -0.010642  -0.061562   0.001358  -0.070457   0.108701
     27       0.118867  -0.248251  -0.172696   0.214217   0.205399  -0.044005
     28       0.078455   0.060883  -0.009668  -0.169291   0.064872  -0.104905
     29       0.041665  -0.053433  -0.040163  -0.031528   0.066585  -0.023138
     30       0.116477   0.258939  -0.152433  -0.192884   0.207165  -0.042745
     31       0.074399  -0.057528  -0.010262   0.187109   0.066135  -0.101525
     32       0.046040   0.042089  -0.042165  -0.055528   0.056889  -0.038375
     33       0.101007  -0.100161  -0.077529   0.322793   0.198440   0.221064
     34      -0.102037   0.215686   0.130597  -0.048339   0.102127  -0.066434
     35       0.005902   0.119418  -0.000027   0.085298   0.070114   0.030853
     36       0.103006   0.060444  -0.076745  -0.331179   0.200238   0.213802
     37      -0.101710  -0.258596   0.110651   0.041043   0.101603  -0.068944
     38       0.001559   0.061142   0.018574  -0.050892   0.065227   0.044799
     39       0.101007   0.100161   0.077529   0.322793  -0.198440   0.221064
     40      -0.102037  -0.215686  -0.130597  -0.048339  -0.102126  -0.066434
     41       0.005902  -0.119418   0.000027   0.085297  -0.070114   0.030853
     42       0.103005  -0.060444   0.076745  -0.331179  -0.200238   0.213802
     43      -0.101709   0.258596  -0.110651   0.041043  -0.101603  -0.068944
     44       0.001558  -0.061142  -0.018574  -0.050892  -0.065226   0.044799
     45       0.118867   0.248251   0.172696   0.214217  -0.205399  -0.044005
     46       0.078455  -0.060883   0.009668  -0.169291  -0.064873  -0.104905
     47       0.041665   0.053433   0.040163  -0.031528  -0.066585  -0.023138
     48       0.116476  -0.258939   0.152434  -0.192885  -0.207164  -0.042745
     49       0.074399   0.057528   0.010262   0.187109  -0.066135  -0.101525
     50       0.046040  -0.042089   0.042165  -0.055528  -0.056889  -0.038375
     51      -0.465390  -0.022055  -0.424265  -0.025178   0.117293  -0.186438
     52      -0.265255  -0.022248  -0.261575  -0.022288   0.032996  -0.124422
[...]
     22       0.036483  -0.015330   0.064994  -0.292720   0.299131   0.059355
     23      -0.035259   0.012473  -0.061116   0.265629  -0.271563  -0.050431
     24      -0.001309   0.000086  -0.003906   0.016087  -0.016412   0.000765
     25       0.018508   0.012460   0.034227  -0.160213   0.162108  -0.027362
     26       0.049623   0.028532   0.086843  -0.386614   0.391604  -0.060505
     27      -0.153124   0.052978  -0.130078  -0.021190   0.008269  -0.115558
     28      -0.348657   0.126753  -0.300762  -0.051390   0.020620  -0.268912
     29       0.318474  -0.103677   0.274060   0.047314  -0.019855   0.225323
     30       0.028510   0.009968   0.026316   0.005093  -0.003144  -0.016469
     31      -0.187812  -0.090808  -0.163176  -0.021946   0.013008   0.158806
     32      -0.444822  -0.192523  -0.383514  -0.053123   0.031638   0.338521
     33      -0.012795  -0.152275  -0.074505  -0.011887   0.007498   0.107445
     34      -0.031025  -0.359963  -0.165151  -0.028725   0.021407   0.250259
     35       0.030090   0.301424   0.150930   0.026080  -0.018975  -0.210933
     36       0.006523  -0.019554   0.013435   0.003878  -0.003303   0.013195
     37      -0.037417   0.180172  -0.100872  -0.023953   0.012224  -0.126852
     38      -0.085929   0.378191  -0.238959  -0.054438   0.027025  -0.270187
     39       0.012796   0.152281  -0.074494  -0.011887  -0.007498   0.107444
     40       0.031028   0.359976  -0.165125  -0.028725  -0.021408   0.250258
     41      -0.030092  -0.301435   0.150908   0.026080   0.018976  -0.210932
     42      -0.006523   0.019553   0.013436   0.003878   0.003303   0.013195
     43       0.037419  -0.180165  -0.100885  -0.023952  -0.012224  -0.126851
     44       0.085933  -0.378175  -0.238986  -0.054437  -0.027025  -0.270186
     45       0.153125  -0.052968  -0.130080  -0.021190  -0.008269  -0.115559
     46       0.348660  -0.126731  -0.300768  -0.051390  -0.020621  -0.268913
     47      -0.318477   0.103657   0.274064   0.047314   0.019855   0.225324
     48      -0.028510  -0.009970   0.026315   0.005093   0.003144  -0.016469
     49       0.187813   0.090821  -0.163167  -0.021945  -0.013009   0.158806
     50       0.444825   0.192553  -0.383494  -0.053122  -0.031641   0.338522
     51       0.015543  -0.000453   0.006470  -0.234336  -0.232522   0.004985
     52      -0.020823   0.000661  -0.007258   0.282789   0.280255  -0.007181
     53      -0.000557   0.000176   0.000006   0.003011   0.002850   0.002706
     54       0.001309  -0.000086  -0.003906   0.016087   0.016413   0.000765
     55      -0.018508  -0.012462   0.034226  -0.160209  -0.162112  -0.027363
     56      -0.049624  -0.028538   0.086840  -0.386604  -0.391613  -0.060507
     57      -0.018718   0.007974   0.030707  -0.135459  -0.138443   0.028062
     58      -0.036484   0.015325   0.064994  -0.292713  -0.299138   0.059354
     59       0.035260  -0.012469  -0.061117   0.265622   0.271570  -0.050431
                 54         55         56         57         58         59    
      0       0.003753   0.003845  -0.014552  -0.014399   0.025227   0.025217
      1       0.003214   0.003239  -0.010538  -0.010427  -0.059227  -0.059502
      2      -0.016533  -0.016703   0.059932   0.059302  -0.004342  -0.004413
      3      -0.013123  -0.008921  -0.004113  -0.004342  -0.000962  -0.000937
      4      -0.011436  -0.007759  -0.003401  -0.003596  -0.005149  -0.005172
      5       0.055425   0.037695   0.017622   0.018600  -0.000850  -0.000855
      6      -0.005959  -0.011536  -0.000891  -0.001621  -0.000051  -0.000375
      7      -0.005536  -0.010626  -0.000785  -0.001409   0.000111  -0.000662
      8       0.024552   0.047822   0.003781   0.006894   0.000075  -0.000131
      9       0.005959  -0.011536   0.000891  -0.001621   0.000053  -0.000374
     10       0.005536  -0.010626   0.000785  -0.001409  -0.000108  -0.000663
     11      -0.024551   0.047822  -0.003781   0.006894  -0.000074  -0.000131
     12       0.013123  -0.008921   0.004113  -0.004342   0.000965  -0.000933
     13       0.011436  -0.007759   0.003401  -0.003596   0.005168  -0.005153
     14      -0.055425   0.037695  -0.017622   0.018600   0.000853  -0.000851
     15      -0.003753   0.003845   0.014552  -0.014399  -0.025321   0.025122
     16      -0.003214   0.003239   0.010538  -0.010427   0.059450  -0.059279
     17       0.016533  -0.016703  -0.059931   0.059303   0.004359  -0.004397
     18      -0.001755   0.001200  -0.007212   0.007147   0.397108  -0.394447
     19      -0.000794   0.001420   0.015048  -0.014869  -0.455921   0.453081
     20       0.006227  -0.006117  -0.014727   0.014497  -0.000520   0.000541
     21       0.042703  -0.041601  -0.157776   0.156418  -0.096970   0.097110
     22       0.095715  -0.094988  -0.337391   0.334051  -0.177545   0.177915
     23      -0.081784   0.081655   0.287901  -0.284986   0.172898  -0.173138
     24       0.004541  -0.005314  -0.009131   0.008830   0.000584  -0.000616
     25      -0.055946   0.055068   0.196211  -0.194261  -0.080077   0.080436
     26      -0.125232   0.123586   0.444672  -0.440291  -0.225429   0.226159
     27      -0.136103   0.089319  -0.042099   0.044031  -0.015037   0.015066
     28      -0.321768   0.220057  -0.095331   0.101677  -0.033962   0.034509
     29       0.271237  -0.184778   0.081592  -0.086710   0.029645  -0.030180
     30      -0.021344   0.017618  -0.005499   0.006537   0.001947  -0.002173
     31       0.184658  -0.126993   0.055732  -0.059599  -0.017070   0.017377
     32       0.394143  -0.267936   0.122245  -0.129704  -0.038455   0.039021
     33      -0.058167   0.120896  -0.006172   0.016178   0.001015   0.002587
     34      -0.144155   0.278983  -0.022021   0.040821  -0.002336   0.008202
     35       0.122270  -0.235702   0.018247  -0.033587   0.001963  -0.007018
     36      -0.012027   0.015823  -0.004283   0.003484   0.001756  -0.001287
     37       0.078610  -0.153073   0.013040  -0.023934  -0.001100   0.004125
     38       0.167747  -0.330681   0.025640  -0.049623  -0.001188   0.008718
     39       0.058167   0.120895   0.006172   0.016177  -0.001025   0.002583
     40       0.144157   0.278982   0.022021   0.040821   0.002305   0.008211
     41      -0.122271  -0.235702  -0.018247  -0.033587  -0.001936  -0.007025
     42       0.012027   0.015823   0.004283   0.003484  -0.001751  -0.001294
     43      -0.078611  -0.153073  -0.013041  -0.023934   0.001084   0.004129
     44      -0.167749  -0.330681  -0.025641  -0.049623   0.001155   0.008723
     45       0.136103   0.089318   0.042100   0.044031   0.014980   0.015122
     46       0.321768   0.220056   0.095333   0.101675   0.033831   0.034637
     47      -0.271236  -0.184777  -0.081593  -0.086709  -0.029531  -0.030291
     48       0.021344   0.017618   0.005499   0.006537  -0.001939  -0.002180
     49      -0.184658  -0.126993  -0.055733  -0.059597   0.017005   0.017441
     50      -0.394143  -0.267935  -0.122247  -0.129702   0.038308   0.039165
     51       0.001755   0.001201   0.007212   0.007146  -0.395622  -0.395938
     52       0.000794   0.001420  -0.015048  -0.014868   0.454214   0.454793
     53      -0.006227  -0.006117   0.014727   0.014497   0.000518   0.000543
     54      -0.004541  -0.005314   0.009131   0.008830  -0.000581  -0.000618
     55       0.055946   0.055068  -0.196214  -0.194258   0.079774   0.080737
     56       0.125232   0.123586  -0.444678  -0.440284   0.224577   0.227007
     57      -0.042703  -0.041601   0.157779   0.156416   0.096603   0.097474
     58      -0.095715  -0.094987   0.337397   0.334046   0.176874   0.178581
     59       0.081784   0.081654  -0.287906  -0.284982  -0.172245  -0.173787


-----------
IR SPECTRUM
-----------

 Mode    freq (cm**-1)   T**2         TX         TY         TZ
-------------------------------------------------------------------
   6:        71.14    0.009328  ( -0.028795  -0.010533   0.091584)
   7:        95.19    0.008020  (  0.037609  -0.081258  -0.001672)
   8:       124.69    0.003737  (  0.050450   0.017661   0.029668)
   9:       145.48    0.000000  (  0.000002   0.000002   0.000000)
  10:       231.45    0.000000  (  0.000002   0.000000   0.000002)
  11:       242.45    0.012267  ( -0.015045   0.105722  -0.029391)
  12:       286.37    0.000000  ( -0.000000   0.000000  -0.000000)
  13:       356.72    0.000000  ( -0.000001   0.000001   0.000000)
  14:       450.36    0.068593  (  0.181070   0.174332   0.073586)
  15:       710.91    5.063704  (  0.502316   0.447691  -2.147314)
  16:       723.74    0.000000  (  0.000002   0.000001  -0.000005)
  17:       781.10    1.309155  ( -0.295765  -0.227795   1.081567)
  18:       873.17    3.493030  (  1.296218  -1.344228   0.076807)
  19:       877.61    0.000000  ( -0.000002   0.000001   0.000000)
  20:       881.96    0.000000  (  0.000002  -0.000001   0.000001)
  21:       980.37    0.475952  ( -0.189773  -0.181285   0.638023)
  22:       999.75    0.000000  (  0.000000   0.000001  -0.000000)
  23:      1029.98    0.831533  (  0.799779  -0.411558   0.150024)
  24:      1052.11    3.955387  ( -1.174738   1.604760  -0.011107)
  25:      1053.64    0.000000  ( -0.000003   0.000003  -0.000000)
  26:      1126.66    0.000000  (  0.000001   0.000000   0.000000)
  27:      1163.08    0.000000  ( -0.000002   0.000000  -0.000000)
  28:      1208.63    0.000072  (  0.004667  -0.005305   0.004674)
  29:      1226.14    1.903516  (  1.297684  -0.440544   0.159541)
  30:      1263.51    0.000000  (  0.000000  -0.000000  -0.000000)
  31:      1284.56    0.000000  ( -0.000001  -0.000001   0.000000)
  32:      1290.29    0.940708  (  0.223922   0.251282  -0.909629)
  33:      1291.02    0.000000  (  0.000001   0.000004  -0.000009)
  34:      1335.91    2.270305  (  1.464196   0.204143   0.291138)
  35:      1343.38    0.000000  ( -0.000001   0.000001  -0.000000)
  36:      1356.31    6.387069  (  2.003868   1.316387   0.799191)
  37:      1359.66    0.000000  ( -0.000003  -0.000002  -0.000001)
  38:      1429.17    0.000000  (  0.000004  -0.000001   0.000003)
  39:      1430.06    0.403635  (  0.622626  -0.092976   0.085598)
  40:      1437.77    0.000000  (  0.000000  -0.000001  -0.000000)
  41:      1445.81   10.173231  (  1.600098   0.014807  -2.759112)
  42:      1446.13    8.698501  ( -0.192960   0.915539  -2.796973)
  43:      1446.21    0.000000  ( -0.000030   0.000042  -0.000084)
  44:      1454.68    0.000000  (  0.000002   0.000001   0.000002)
  45:      1459.89   13.224442  ( -0.139160   3.586649   0.583974)
  46:      2929.41    0.000000  ( -0.000003  -0.000003   0.000004)
  47:      2934.35    8.205094  (  0.554679   2.677219   0.854357)
  48:      2946.07    0.000000  ( -0.000011  -0.000059  -0.000017)
  49:      2949.89    0.000000  ( -0.000054  -0.000351  -0.000087)
  50:      2950.06  100.131893  (  1.529184   9.592555   2.403409)
  51:      2961.46   87.952035  (  7.971259   4.168444   2.652384)
  52:      2961.59    0.000000  (  0.000097   0.000051   0.000033)
  53:      2962.81    0.416396  ( -0.369441  -0.448408   0.280783)
  54:      2979.71    0.000000  ( -0.000001   0.000002   0.000020)
  55:      2991.58   72.021691  ( -1.947981  -1.818182   8.057374)
  56:      3027.09    0.000000  ( -0.000016  -0.000022   0.000077)
  57:      3027.50  103.933157  ( -2.273557  -1.714591   9.788987)
  58:      3033.70    0.000250  ( -0.006953   0.014168   0.000866)
  59:      3033.71   70.611826  (  3.697928  -7.531351  -0.464653)

The first frequency considered to be a vibration is 6
The total number of vibrations considered is 54


--------------------------
THERMOCHEMISTRY AT 298.15K
--------------------------

Temperature         ... 298.15 K
Pressure            ... 1.00 atm
Total Mass          ... 86.18 AMU

Throughout the following assumptions are being made:
  (1) The electronic state is orbitally nondegenerate
  (2) There are no thermally accessible electronically excited states
  (3) Hindered rotations indicated by low frequency modes are not
      treated as such but are treated as vibrations and this may
      cause some error
  (4) All equations used are the standard statistical mechanics
      equations for an ideal gas
  (5) All vibrations are strictly harmonic

freq.      71.14  E(vib)   ...       0.50 
freq.      95.19  E(vib)   ...       0.47 
freq.     124.69  E(vib)   ...       0.43 
freq.     145.48  E(vib)   ...       0.41 
freq.     231.45  E(vib)   ...       0.32 
freq.     242.45  E(vib)   ...       0.31 
freq.     286.37  E(vib)   ...       0.27 
freq.     356.72  E(vib)   ...       0.22 
freq.     450.36  E(vib)   ...       0.17 
freq.     710.91  E(vib)   ...       0.07 
freq.     723.74  E(vib)   ...       0.06 
freq.     781.10  E(vib)   ...       0.05 
freq.     873.17  E(vib)   ...       0.04 
freq.     877.61  E(vib)   ...       0.04 
freq.     881.96  E(vib)   ...       0.04 
freq.     980.37  E(vib)   ...       0.02 
freq.     999.75  E(vib)   ...       0.02 
freq.    1029.98  E(vib)   ...       0.02 
freq.    1052.11  E(vib)   ...       0.02 
freq.    1053.64  E(vib)   ...       0.02 
freq.    1126.66  E(vib)   ...       0.01 
freq.    1163.08  E(vib)   ...       0.01 
freq.    1208.63  E(vib)   ...       0.01 
freq.    1226.14  E(vib)   ...       0.01 
freq.    1263.51  E(vib)   ...       0.01 
freq.    1284.56  E(vib)   ...       0.01 
freq.    1290.29  E(vib)   ...       0.01 
freq.    1291.02  E(vib)   ...       0.01 
freq.    1335.91  E(vib)   ...       0.01 
freq.    1343.38  E(vib)   ...       0.01 
freq.    1356.31  E(vib)   ...       0.01 
freq.    1359.66  E(vib)   ...       0.01 
freq.    1429.17  E(vib)   ...       0.00 
freq.    1430.06  E(vib)   ...       0.00 
freq.    1437.77  E(vib)   ...       0.00 
freq.    1445.81  E(vib)   ...       0.00 
freq.    1446.13  E(vib)   ...       0.00 
freq.    1446.21  E(vib)   ...       0.00 
freq.    1454.68  E(vib)   ...       0.00 
freq.    1459.89  E(vib)   ...       0.00 
freq.    2929.41  E(vib)   ...       0.00 
freq.    2934.35  E(vib)   ...       0.00 
freq.    2946.07  E(vib)   ...       0.00 
freq.    2949.89  E(vib)   ...       0.00 
freq.    2950.06  E(vib)   ...       0.00 
freq.    2961.46  E(vib)   ...       0.00 
freq.    2961.59  E(vib)   ...       0.00 
freq.    2962.81  E(vib)   ...       0.00 
freq.    2979.71  E(vib)   ...       0.00 
freq.    2991.58  E(vib)   ...       0.00 
freq.    3027.09  E(vib)   ...       0.00 
freq.    3027.50  E(vib)   ...       0.00 
freq.    3033.70  E(vib)   ...       0.00 
freq.    3033.71  E(vib)   ...       0.00 

------------
INNER ENERGY
------------

The inner energy is: U= E(el) + E(ZPE) + E(vib) + E(rot) + E(trans)
    E(el)   - is the total energy from the electronic structure calculation
              = E(kin-el) + E(nuc-el) + E(el-el) + E(nuc-nuc)
    E(ZPE)  - the the zero temperature vibrational energy from the frequency calculation
    E(vib)  - the the finite temperature correction to E(ZPE) due to population
              of excited vibrational states
    E(rot)  - is the rotational thermal energy
    E(trans)- is the translational thermal energy

Summary of contributions to the inner energy U:
Electronic energy                ...   -236.81173962 Eh
Zero point energy                ...      0.18329219 Eh     115.02 kcal/mol
Thermal vibrational correction   ...      0.00578969 Eh       3.63 kcal/mol
Thermal rotational correction    ...      0.00141627 Eh       0.89 kcal/mol
Thermal translational correction ...      0.00141627 Eh       0.89 kcal/mol
-----------------------------------------------------------------------
Total thermal energy                   -236.61982520 Eh


Summary of corrections to the electronic energy:
(perhaps to be used in another calculation)
Total thermal correction                  0.00862223 Eh       5.41 kcal/mol
Non-thermal (ZPE) correction              0.18329219 Eh     115.02 kcal/mol
-----------------------------------------------------------------------
Total correction                          0.19191442 Eh     120.43 kcal/mol


--------
ENTHALPY
--------

The enthalpy is H = U + kB*T
                kB is Boltzmann's constant
Total free energy                 ...   -236.61982520 Eh 
Thermal Enthalpy correction       ...      0.00094421 Eh       0.59 kcal/mol
-----------------------------------------------------------------------
Total Enthalpy                    ...   -236.61888099 Eh


Vibrational entropy computed according to the QRRHO of S. Grimme
Chem.Eur.J. 2012 18 9955


-------
ENTROPY
-------

The entropy contributions are T*S = T*(S(el)+S(vib)+S(rot)+S(trans)
     S(el)   - electronic entropy
     S(vib)  - vibrational entropy
     S(rot)  - rotational entropy
     S(trans)- translational entropy
The entropies will be listed as mutliplied by the temperature to get
units of energy

Electronic entropy                ...      0.00000000 Eh      0.00 kcal/mol
Vibrational entropy               ...      0.01019923 Eh      6.40 kcal/mol
Rotational entropy                ...      0.01192806 Eh      7.48 kcal/mol
Translational entropy             ...      0.01866056 Eh     11.71 kcal/mol
-----------------------------------------------------------------------
Final entropy term                ...      0.04078785 Eh     25.59 kcal/mol


CAUTION: The rotational entropy is not quite correctly treated here
         because it includes a symmetry number that is not yet correctly
         implemented in ORCA!
For a nonlinear molecule the correct rotational entropy is:
    S(rot) = R*(ln(qrot/sn)+1.5)
    R    = 8.31441 J/mol/K = 1.987191683e-3 kcal/mol/K
    qrot = 205221.7573363
    sn is the rotational symmetry number. We have assumed 3 here
       if it is different for your molecule then you should correct
       the printed rotational entropy by manually evaluating the equation
       as given above

For convenience we print out the resulting values for sn=1 - 12:
 sn= 1  qrot/sn=  205221.7573 T*S(rot)=     8.14 kcal/mol T*S(tot)=    26.25 kcal/mol
 sn= 2  qrot/sn=  102610.8787 T*S(rot)=     7.73 kcal/mol T*S(tot)=    25.83 kcal/mol
 sn= 3  qrot/sn=   68407.2524 T*S(rot)=     7.48 kcal/mol T*S(tot)=    25.59 kcal/mol
 sn= 4  qrot/sn=   51305.4393 T*S(rot)=     7.31 kcal/mol T*S(tot)=    25.42 kcal/mol
 sn= 5  qrot/sn=   41044.3515 T*S(rot)=     7.18 kcal/mol T*S(tot)=    25.29 kcal/mol
 sn= 6  qrot/sn=   34203.6262 T*S(rot)=     7.07 kcal/mol T*S(tot)=    25.18 kcal/mol
 sn= 7  qrot/sn=   29317.3939 T*S(rot)=     6.98 kcal/mol T*S(tot)=    25.09 kcal/mol
 sn= 8  qrot/sn=   25652.7197 T*S(rot)=     6.90 kcal/mol T*S(tot)=    25.01 kcal/mol
 sn= 9  qrot/sn=   22802.4175 T*S(rot)=     6.83 kcal/mol T*S(tot)=    24.94 kcal/mol
 sn=10  qrot/sn=   20522.1757 T*S(rot)=     6.77 kcal/mol T*S(tot)=    24.88 kcal/mol
 sn=11  qrot/sn=   18656.5234 T*S(rot)=     6.72 kcal/mol T*S(tot)=    24.82 kcal/mol
 sn=12  qrot/sn=   17101.8131 T*S(rot)=     6.66 kcal/mol T*S(tot)=    24.77 kcal/mol


-------------------
GIBBS FREE ENTHALPY
-------------------

The Gibbs free enthalpy is G = H - T*S

Total enthalpy                    ...   -236.61888099 Eh 
Total entropy correction          ...     -0.04078785 Eh    -25.59 kcal/mol
-----------------------------------------------------------------------
Final Gibbs free enthalpy         ...   -236.65966884 Eh

For completeness - the Gibbs free enthalpy minus the electronic energy
G-E(el)                           ...      0.15207078 Eh     95.43 kcal/mol


Timings for individual modules:

Sum of individual times         ...      942.001 sec (=  15.700 min)
GTO integral calculation        ...        0.366 sec (=   0.006 min)   0.0 %
SCF iterations                  ...       25.458 sec (=   0.424 min)   2.7 %
Analytical frequency calculation...      916.177 sec (=  15.270 min)  97.3 %
                             ****ORCA TERMINATED NORMALLY****
TOTAL RUN TIME: 0 days 0 hours 15 minutes 42 seconds 546 msec
