
                                 *****************
                                 * O   R   C   A *
                                 *****************

           --- An Ab Initio, DFT and Semiempirical electronic structure package ---

                  #######################################################
                  #                        -***-                        #
                  #  Department of molecular theory and spectroscopy    #
                  #              Directorship: Frank Neese              #
                  # Max Planck Institute for Chemical Energy Conversion #
                  #                  D-45470 Muelheim/Ruhr              #
                  #                       Germany                       #
                  #                                                     #
                  #                  All rights reserved                #
                  #                        -***-                        #
                  #######################################################


                         Program Version 4.0.1.2 - RELEASE -


 With contributions from (in alphabetic order):
   Daniel Aravena         : Magnetic Properties
   Michael Atanasov       : Ab Initio Ligand Field Theory
   Ute Becker             : Parallelization
   Martin Brehm           : Molecular dynamics
   Dmytro Bykov           : SCF Hessian
   Vijay G. Chilkuri      : MRCI spin determinant printing
   Dipayan Datta          : RHF DLPNO-CCSD density
   Achintya Kumar Dutta   : EOM-CC, STEOM-CC
   Dmitry Ganyushin       : Spin-Orbit,Spin-Spin,Magnetic field MRCI
   Yang Guo               : DLPNO-NEVPT2, CIM, IAO-localization
   Andreas Hansen         : Spin unrestricted coupled pair/coupled cluster methods
   Lee Huntington         : MR-EOM, pCC
   Robert Izsak           : Overlap fitted RIJCOSX, COSX-SCS-MP3, EOM
   Christian Kollmar      : KDIIS, OOCD, Brueckner-CCSD(T), CCSD density
   Simone Kossmann        : Meta GGA functionals, TD-DFT gradient, OOMP2, MP2 Hessian
   Martin Krupicka        : AUTO-CI
   Dagmar Lenk            : GEPOL surface
   Dimitrios Liakos       : Extrapolation schemes; parallel MDCI
   Dimitrios Manganas     : ROCIS; embedding schemes
   Dimitrios Pantazis     : SARC Basis sets
   Taras Petrenko         : DFT Hessian,TD-DFT gradient, ASA, ECA, R-Raman, ABS, FL, XAS/XES, NRVS
   Peter Pinski           : DLPNO-MP2
   Christoph Reimann      : Effective Core Potentials
   Marius Retegan         : Local ZFS, SOC
   Christoph Riplinger    : Optimizer, TS searches, QM/MM, DLPNO-CCSD(T), (RO)-DLPNO pert. Triples
   Tobias Risthaus        : Range-separated hybrids, TD-DFT gradient, RPA, STAB
   Michael Roemelt        : Restricted open shell CIS
   Masaaki Saitow         : Open-shell DLPNO
   Barbara Sandhoefer     : DKH picture change effects
   Kantharuban Sivalingam : CASSCF convergence, NEVPT2, FIC-MRCI
   Georgi Stoychev        : AutoAux
   Boris Wezisla          : Elementary symmetry handling
   Frank Wennmohs         : Technical directorship


 We gratefully acknowledge several colleagues who have allowed us to
 interface, adapt or use parts of their codes:
   Stefan Grimme, W. Hujo, H. Kruse,             : VdW corrections, initial TS optimization,
                  C. Bannwarth                     DFT functionals, gCP, sTDA/sTD-DF
   Ed Valeev                                     : LibInt (2-el integral package), F12 methods
   Garnet Chan, S. Sharma, J. Yang, R. Olivares  : DMRG
   Ulf Ekstrom                                   : XCFun DFT Library
   Mihaly Kallay                                 : mrcc  (arbitrary order and MRCC methods)
   Andreas Klamt, Michael Diedenhofen            : otool_cosmo (COSMO solvation model)
   Jiri Pittner, Ondrej Demel                    : Mk-CCSD
   Frank Weinhold                                : gennbo (NPA and NBO analysis)
   Christopher J. Cramer and Donald G. Truhlar   : smd solvation model


 Your calculation uses the libint2 library for the computation of 2-el integrals
 For citations please refer to: http://libint.valeyev.net

 This ORCA versions uses:
   CBLAS   interface :  Fast vector & matrix operations
   LAPACKE interface :  Fast linear algebra routines
   SCALAPACK package :  Parallel linear algebra routines




*****************************************
The coordinations will be read from file: C6H14.xyz
*****************************************


Your calculation utilizes the basis: def2-TZVP
   F. Weigend and R. Ahlrichs, Phys. Chem. Chem. Phys. 7, 3297 (2005).

Your calculation utilizes the auxiliary basis: def2/J
   F. Weigend, Phys. Chem. Chem. Phys. 8, 1057 (2006).

================================================================================
                                        WARNINGS
                       Please study these warnings very carefully!
================================================================================

Warning: TCutStore was < 0. Adjusted to Thresh (uncritical)

WARNING: Geometry Optimization
  ===> : Switching off AutoStart
         For restart on a previous wavefunction, please use MOREAD

INFO   : the flag for use of LIBINT has been found!

================================================================================
                                       INPUT FILE
================================================================================
NAME = opt.inp
|  1> # avogadro generated ORCA input file 
|  2> # Basic Mode
|  3> # 
|  4> ! PBE OPT def2-TZVP
|  5> 
|  6> * xyzfile 0 1 C6H14.xyz
|  7> 
|  8> 
|  9>                          ****END OF INPUT****
================================================================================

                       *****************************
                       * Geometry Optimization Run *
                       *****************************

Geometry optimization settings:
Update method            Update   .... BFGS
Choice of coordinates    CoordSys .... Redundant Internals
Initial Hessian          InHess   .... Almoef's Model

Convergence Tolerances:
Energy Change            TolE     ....  5.0000e-06 Eh
Max. Gradient            TolMAXG  ....  3.0000e-04 Eh/bohr
RMS Gradient             TolRMSG  ....  1.0000e-04 Eh/bohr
Max. Displacement        TolMAXD  ....  4.0000e-03 bohr
RMS Displacement         TolRMSD  ....  2.0000e-03 bohr

------------------------------------------------------------------------------
                        ORCA OPTIMIZATION COORDINATE SETUP
------------------------------------------------------------------------------

The optimization will be done in new redundant internal coordinates
Making redundant internal coordinates   ...  (new redundants) done
Evaluating the initial hessian          ...  (Almloef) done
Evaluating the coordinates              ...  done
Calculating the B-matrix                .... done
Calculating the G-matrix                .... done
Diagonalizing the G-matrix              .... done
Small eigenvalue found = 1.398e-02
The first mode is                       ....   46
The number of degrees of freedom        ....   54

    -----------------------------------------------------------------
                    Redundant Internal Coordinates


    -----------------------------------------------------------------
         Definition                    Initial Value    Approx d2E/dq
    -----------------------------------------------------------------
      1. B(C   1,C   0)                  1.5400         0.360100   
      2. B(C   2,C   1)                  1.5400         0.360100   
      3. B(C   3,C   2)                  1.5400         0.360100   
      4. B(C   4,C   3)                  1.5400         0.360100   
      5. B(C   5,C   4)                  1.5400         0.360100   
      6. B(H   6,C   5)                  1.0900         0.360100   
      7. B(H   7,C   5)                  1.0900         0.360100   
      8. B(H   8,C   5)                  1.0900         0.360100   
      9. B(H   9,C   4)                  1.0900         0.360100   
     10. B(H  10,C   4)                  1.0900         0.360100   
     11. B(H  11,C   3)                  1.0900         0.360100   
     12. B(H  12,C   3)                  1.0900         0.360100   
     13. B(H  13,C   2)                  1.0900         0.360100   
     14. B(H  14,C   2)                  1.0900         0.360100   
     15. B(H  15,C   1)                  1.0900         0.360100   
     16. B(H  16,C   1)                  1.0900         0.360100   
     17. B(H  17,C   0)                  1.0900         0.360100   
     18. B(H  18,C   0)                  1.0900         0.360100   
     19. B(H  19,C   0)                  1.0900         0.360100   
     20. A(C   1,C   0,H  17)          109.4712         0.322370   
     21. A(C   1,C   0,H  18)          109.4712         0.322370   
     22. A(H  18,C   0,H  19)          109.4712         0.290839   
     23. A(C   1,C   0,H  19)          109.4712         0.322370   
     24. A(H  17,C   0,H  19)          109.4712         0.290839   
     25. A(H  17,C   0,H  18)          109.4712         0.290839   
     26. A(C   2,C   1,H  15)          109.4712         0.322370   
     27. A(C   0,C   1,H  15)          109.4712         0.322370   
     28. A(C   0,C   1,H  16)          109.4712         0.322370   
     29. A(C   2,C   1,H  16)          109.4712         0.322370   
     30. A(C   0,C   1,C   2)          109.4712         0.358827   
     31. A(H  15,C   1,H  16)          109.4712         0.290839   
     32. A(H  13,C   2,H  14)          109.4712         0.290839   
     33. A(C   3,C   2,H  14)          109.4712         0.322370   
     34. A(C   3,C   2,H  13)          109.4712         0.322370   
     35. A(C   1,C   2,H  13)          109.4712         0.322370   
     36. A(C   1,C   2,C   3)          109.4712         0.358827   
     37. A(C   1,C   2,H  14)          109.4712         0.322370   
     38. A(C   2,C   3,C   4)          109.4712         0.358827   
     39. A(H  11,C   3,H  12)          109.4712         0.290839   
     40. A(C   4,C   3,H  12)          109.4712         0.322370   
     41. A(C   2,C   3,H  12)          109.4712         0.322370   
     42. A(C   4,C   3,H  11)          109.4712         0.322370   
     43. A(C   2,C   3,H  11)          109.4712         0.322370   
     44. A(H   9,C   4,H  10)          109.4712         0.290839   
     45. A(C   5,C   4,H  10)          109.4712         0.322370   
     46. A(C   3,C   4,H  10)          109.4712         0.322370   
     47. A(C   5,C   4,H   9)          109.4712         0.322370   
     48. A(C   3,C   4,H   9)          109.4712         0.322370   
     49. A(C   3,C   4,C   5)          109.4712         0.358827   
     50. A(H   6,C   5,H   7)          109.4712         0.290839   
     51. A(C   4,C   5,H   7)          109.4712         0.322370   
     52. A(H   7,C   5,H   8)          109.4712         0.290839   
     53. A(C   4,C   5,H   6)          109.4712         0.322370   
     54. A(H   6,C   5,H   8)          109.4712         0.290839   
     55. A(C   4,C   5,H   8)          109.4712         0.322370   
     56. D(H  15,C   1,C   0,H  19)    180.0000         0.010403   
     57. D(H  16,C   1,C   0,H  18)   -180.0000         0.010403   
     58. D(H  15,C   1,C   0,H  18)     60.0000         0.010403   
     59. D(H  16,C   1,C   0,H  19)    -60.0000         0.010403   
     60. D(H  15,C   1,C   0,H  17)    -60.0000         0.010403   
     61. D(C   2,C   1,C   0,H  19)     60.0000         0.010403   
     62. D(C   2,C   1,C   0,H  18)    -60.0000         0.010403   
     63. D(C   2,C   1,C   0,H  17)    180.0000         0.010403   
     64. D(H  16,C   1,C   0,H  17)     60.0000         0.010403   
     65. D(H  13,C   2,C   1,H  15)    180.0000         0.010403   
     66. D(C   3,C   2,C   1,H  16)    -60.0000         0.010403   
     67. D(C   3,C   2,C   1,C   0)   -180.0000         0.010403   
     68. D(H  13,C   2,C   1,C   0)    -60.0000         0.010403   
     69. D(H  13,C   2,C   1,H  16)     60.0000         0.010403   
     70. D(H  14,C   2,C   1,H  16)   -180.0000         0.010403   
     71. D(H  14,C   2,C   1,H  15)    -60.0000         0.010403   
     72. D(H  14,C   2,C   1,C   0)     60.0000         0.010403   
     73. D(C   3,C   2,C   1,H  15)     60.0000         0.010403   
     74. D(H  12,C   3,C   2,H  13)    -60.0000         0.010403   
     75. D(H  12,C   3,C   2,C   1)     60.0000         0.010403   
     76. D(H  11,C   3,C   2,H  14)     60.0000         0.010403   
     77. D(H  11,C   3,C   2,H  13)   -180.0000         0.010403   
     78. D(H  11,C   3,C   2,C   1)    -60.0000         0.010403   
     79. D(C   4,C   3,C   2,H  13)     60.0000         0.010403   
     80. D(C   4,C   3,C   2,H  14)    -60.0000         0.010403   
     81. D(H  12,C   3,C   2,H  14)    180.0000         0.010403   
     82. D(C   4,C   3,C   2,C   1)   -180.0000         0.010403   
     83. D(H   9,C   4,C   3,C   2)    -60.0000         0.010403   
     84. D(C   5,C   4,C   3,H  12)    -60.0000         0.010403   
     85. D(C   5,C   4,C   3,H  11)     60.0000         0.010403   
     86. D(C   5,C   4,C   3,C   2)    180.0000         0.010403   
     87. D(H  10,C   4,C   3,H  12)   -180.0000         0.010403   
     88. D(H  10,C   4,C   3,H  11)    -60.0000         0.010403   
     89. D(H  10,C   4,C   3,C   2)     60.0000         0.010403   
     90. D(H   9,C   4,C   3,H  12)     60.0000         0.010403   
     91. D(H   9,C   4,C   3,H  11)   -180.0000         0.010403   
     92. D(H   8,C   5,C   4,H  10)    180.0000         0.010403   
     93. D(H   8,C   5,C   4,H   9)    -60.0000         0.010403   
     94. D(H   8,C   5,C   4,C   3)     60.0000         0.010403   
     95. D(H   7,C   5,C   4,H  10)     60.0000         0.010403   
     96. D(H   7,C   5,C   4,H   9)    180.0000         0.010403   
     97. D(H   7,C   5,C   4,C   3)    -60.0000         0.010403   
     98. D(H   6,C   5,C   4,H  10)    -60.0000         0.010403   
     99. D(H   6,C   5,C   4,H   9)     60.0000         0.010403   
    100. D(H   6,C   5,C   4,C   3)    180.0000         0.010403   
    -----------------------------------------------------------------

Number of atoms                         .... 20
Number of degrees of freedom            .... 100

         *************************************************************
         *                GEOMETRY OPTIMIZATION CYCLE   1            *
         *************************************************************
---------------------------------
CARTESIAN COORDINATES (ANGSTROEM)
---------------------------------
  C      0.000000    0.000000    0.000000
  C      1.386968    0.513328    0.429433
  C      2.389570   -0.655600    0.429433
  C      3.776538   -0.142272    0.858867
  C      4.779139   -1.311199    0.858867
  C      6.166108   -0.797871    1.288300
  H      6.875741   -1.625229    1.288300
  H      6.501935   -0.031156    0.590112
  H      6.102332   -0.373900    2.290439
  H      4.443311   -2.077915    1.557055
  H      4.842915   -1.735171   -0.143271
  H      4.112366    0.624444    0.160679
  H      3.712762    0.281700    1.861005
  H      2.053742   -1.422315    1.127622
  H      2.453345   -1.079571   -0.572705
  H      1.722796    1.280043   -0.268755
  H      1.323193    0.937299    1.431572
  H     -0.709633    0.827358    0.000000
  H      0.063776   -0.423972   -1.002138
  H     -0.335828   -0.766715    0.698188

----------------------------
CARTESIAN COORDINATES (A.U.)
----------------------------
  NO LB      ZA    FRAG     MASS         X           Y           Z
   0 C     6.0000    0    12.011    0.000000    0.000000    0.000000
   1 C     6.0000    0    12.011    2.620991    0.970049    0.811512
   2 C     6.0000    0    12.011    4.515632   -1.238904    0.811512
   3 C     6.0000    0    12.011    7.136623   -0.268855    1.623023
   4 C     6.0000    0    12.011    9.031264   -2.477807    1.623023
   5 C     6.0000    0    12.011   11.652255   -1.507758    2.434535
   6 H     1.0000    0     1.008   12.993267   -3.071238    2.434535
   7 H     1.0000    0     1.008   12.286877   -0.058876    1.115150
   8 H     1.0000    0     1.008   11.531736   -0.706568    4.328302
   9 H     1.0000    0     1.008    8.396642   -3.926689    2.942408
  10 H     1.0000    0     1.008    9.151783   -3.278997   -0.270743
  11 H     1.0000    0     1.008    7.771245    1.180028    0.303638
  12 H     1.0000    0     1.008    7.016104    0.532335    3.516790
  13 H     1.0000    0     1.008    3.881010   -2.687786    2.130897
  14 H     1.0000    0     1.008    4.636150   -2.040094   -1.082255
  15 H     1.0000    0     1.008    3.255613    2.418931   -0.507873
  16 H     1.0000    0     1.008    2.500472    1.771239    2.705278
  17 H     1.0000    0     1.008   -1.341013    1.563479    0.000000
  18 H     1.0000    0     1.008    0.120518   -0.801190   -1.893767
  19 H     1.0000    0     1.008   -0.634623   -1.448882    1.319385

--------------------------------
INTERNAL COORDINATES (ANGSTROEM)
--------------------------------
 C      0   0   0     0.000000000000     0.00000000     0.00000000
 C      1   0   0     1.540000000007     0.00000000     0.00000000
 C      2   1   0     1.540000004913   109.47122042     0.00000000
 C      3   2   1     1.540000002796   109.47122038   180.00000000
 C      4   3   2     1.539999997323   109.47122061   180.00000000
 C      5   4   3     1.540000000007   109.47122065   180.00000000
 H      6   5   4     1.090000005329   109.47122032   180.00000000
 H      6   5   4     1.089999999734   109.47122075   299.99999949
 H      6   5   4     1.089999996267   109.47122049    59.99999987
 H      5   4   3     1.090000000362   109.47122056   300.00000014
 H      5   4   3     1.090000005460   109.47122064    59.99999981
 H      4   3   2     1.090000006768   109.47122052   299.99999976
 H      4   3   2     1.089999996267   109.47122082    59.99999977
 H      3   2   1     1.089999999734   109.47122033   299.99999983
 H      3   2   1     1.089999992377   109.47122051    60.00000052
 H      2   1   3     1.089999993328   109.47122103   119.99999988
 H      2   1   3     1.090000005460   109.47122047   240.00000016
 H      1   2   3     1.089999997739   109.47122065   180.00000000
 H      1   2   3     1.089999996267   109.47122049   300.00000006
 H      1   2   3     1.090000000362   109.47122108    59.99999973

---------------------------
INTERNAL COORDINATES (A.U.)
---------------------------
 C      0   0   0     0.000000000000     0.00000000     0.00000000
 C      1   0   0     2.910178246252     0.00000000     0.00000000
 C      2   1   0     2.910178255523   109.47122042     0.00000000
 C      3   2   1     2.910178251522   109.47122038   180.00000000
 C      4   3   2     2.910178241179   109.47122061   180.00000000
 C      5   4   3     2.910178246252   109.47122065   180.00000000
 H      6   5   4     2.059801496045   109.47122032   180.00000000
 H      6   5   4     2.059801485471   109.47122075   299.99999949
 H      6   5   4     2.059801478919   109.47122049    59.99999987
 H      5   4   3     2.059801486659   109.47122056   300.00000014
 H      5   4   3     2.059801496293   109.47122064    59.99999981
 H      4   3   2     2.059801498764   109.47122052   299.99999976
 H      4   3   2     2.059801478919   109.47122082    59.99999977
 H      3   2   1     2.059801485471   109.47122033   299.99999983
 H      3   2   1     2.059801471569   109.47122051    60.00000052
 H      2   1   3     2.059801473367   109.47122103   119.99999988
 H      2   1   3     2.059801496293   109.47122047   240.00000016
 H      1   2   3     2.059801481701   109.47122065   180.00000000
 H      1   2   3     2.059801478919   109.47122049   300.00000006
 H      1   2   3     2.059801486659   109.47122108    59.99999973

---------------------
BASIS SET INFORMATION
---------------------
There are 2 groups of distinct atoms

 Group   1 Type C   : 11s6p2d1f contracted to 5s3p2d1f pattern {62111/411/11/1}
 Group   2 Type H   : 5s1p contracted to 3s1p pattern {311/1}

Atom   0C    basis set group =>   1
Atom   1C    basis set group =>   1
Atom   2C    basis set group =>   1
Atom   3C    basis set group =>   1
Atom   4C    basis set group =>   1
Atom   5C    basis set group =>   1
Atom   6H    basis set group =>   2
Atom   7H    basis set group =>   2
Atom   8H    basis set group =>   2
Atom   9H    basis set group =>   2
Atom  10H    basis set group =>   2
Atom  11H    basis set group =>   2
Atom  12H    basis set group =>   2
Atom  13H    basis set group =>   2
Atom  14H    basis set group =>   2
Atom  15H    basis set group =>   2
Atom  16H    basis set group =>   2
Atom  17H    basis set group =>   2
Atom  18H    basis set group =>   2
Atom  19H    basis set group =>   2
-------------------------------
AUXILIARY BASIS SET INFORMATION
-------------------------------
There are 2 groups of distinct atoms

 Group   1 Type C   : 12s5p4d2f1g contracted to 6s4p3d1f1g pattern {711111/2111/211/2/1}
 Group   2 Type H   : 5s2p1d contracted to 3s1p1d pattern {311/2/1}

Atom   0C    basis set group =>   1
Atom   1C    basis set group =>   1
Atom   2C    basis set group =>   1
Atom   3C    basis set group =>   1
Atom   4C    basis set group =>   1
Atom   5C    basis set group =>   1
Atom   6H    basis set group =>   2
Atom   7H    basis set group =>   2
Atom   8H    basis set group =>   2
Atom   9H    basis set group =>   2
Atom  10H    basis set group =>   2
Atom  11H    basis set group =>   2
Atom  12H    basis set group =>   2
Atom  13H    basis set group =>   2
Atom  14H    basis set group =>   2
Atom  15H    basis set group =>   2
Atom  16H    basis set group =>   2
Atom  17H    basis set group =>   2
Atom  18H    basis set group =>   2
Atom  19H    basis set group =>   2
------------------------------------------------------------------------------
                           ORCA GTO INTEGRAL CALCULATION
                           -- RI-GTO INTEGRALS CHOSEN --
------------------------------------------------------------------------------

                         BASIS SET STATISTICS AND STARTUP INFO

Gaussian basis set:
 # of primitive gaussian shells          ...  204
 # of primitive gaussian functions       ...  388
 # of contracted shells                  ...  122
 # of contracted basis functions         ...  270
 Highest angular momentum                ...    3
 Maximum contraction depth               ...    6
Auxiliary gaussian basis set:
 # of primitive gaussian shells          ...  256
 # of primitive gaussian functions       ...  644
 # of contracted shells                  ...  160
 # of contracted aux-basis functions     ...  448
 Highest angular momentum                ...    4
 Maximum contraction depth               ...    7
Ratio of auxiliary to basis functions    ...  1.66
Integral package used                  ... LIBINT
 One Electron integrals                  ... done
 Ordering auxiliary basis shells         ... done
 Integral threshhold             Thresh  ...  2.500e-11
 Primitive cut-off               TCut    ...  2.500e-12
 Pre-screening matrix                    ... done
 Shell pair data                         ... 
 Ordering of the shell pairs             ... done (   0.001 sec) 6713 of 7503 pairs
 Determination of significant pairs      ... done (   0.000 sec)
 Creation of shell pair data             ... done (   0.002 sec)
 Storage of shell pair data              ... done (   0.018 sec)
 Shell pair data done in (   0.022 sec)
 Computing two index integrals           ... done
 Cholesky decomposition of the V-matrix  ... done


Timings:
 Total evaluation time                   ...   0.337 sec (  0.006 min)
 One electron matrix time                ...   0.057 sec (  0.001 min) = 17.0%
 Schwartz matrix evaluation time         ...   0.194 sec (  0.003 min) = 57.5%
 Two index repulsion integral time       ...   0.022 sec (  0.000 min) =  6.6%
 Cholesky decomposition of V             ...   0.018 sec (  0.000 min) =  5.2%
 Three index repulsion integral time     ...   0.000 sec (  0.000 min) =  0.0%

-------------------------------------------------------------------------------
                                 ORCA SCF
-------------------------------------------------------------------------------

------------
SCF SETTINGS
------------
Hamiltonian:
 Density Functional     Method          .... DFT(GTOs)
 Exchange Functional    Exchange        .... PBE
   PBE kappa parameter   XKappa         ....  0.804000
   PBE mue parameter    XMuePBE         ....  0.219520
 Correlation Functional Correlation     .... PBE
   PBE beta parameter  CBetaPBE         ....  0.066725
 LDA part of GGA corr.  LDAOpt          .... PW91-LDA
 Gradients option       PostSCFGGA      .... off
   NL short-range parameter             ....  6.400000
 RI-approximation to the Coulomb term is turned on
   Number of auxiliary basis functions  .... 448


General Settings:
 Integral files         IntName         .... opt
 Hartree-Fock type      HFTyp           .... RHF
 Total Charge           Charge          ....    0
 Multiplicity           Mult            ....    1
 Number of Electrons    NEL             ....   50
 Basis Dimension        Dim             ....  270
 Nuclear Repulsion      ENuc            ....    245.2445690692 Eh

Convergence Acceleration:
 DIIS                   CNVDIIS         .... on
   Start iteration      DIISMaxIt       ....    12
   Startup error        DIISStart       ....  0.200000
   # of expansion vecs  DIISMaxEq       ....     5
   Bias factor          DIISBfac        ....   1.050
   Max. coefficient     DIISMaxC        ....  10.000
 Newton-Raphson         CNVNR           .... off
 SOSCF                  CNVSOSCF        .... on
   Start iteration      SOSCFMaxIt      ....   150
   Startup grad/error   SOSCFStart      ....  0.003300
 Level Shifting         CNVShift        .... on
   Level shift para.    LevelShift      ....    0.2500
   Turn off err/grad.   ShiftErr        ....    0.0010
 Zerner damping         CNVZerner       .... off
 Static damping         CNVDamp         .... on
   Fraction old density DampFac         ....    0.7000
   Max. Damping (<1)    DampMax         ....    0.9800
   Min. Damping (>=0)   DampMin         ....    0.0000
   Turn off err/grad.   DampErr         ....    0.1000
 Fernandez-Rico         CNVRico         .... off

SCF Procedure:
 Maximum # iterations   MaxIter         ....   125
 SCF integral mode      SCFMode         .... Direct
   Integral package                     .... LIBINT
 Reset frequeny         DirectResetFreq ....    20
 Integral Threshold     Thresh          ....  2.500e-11 Eh
 Primitive CutOff       TCut            ....  2.500e-12 Eh

Convergence Tolerance:
 Convergence Check Mode ConvCheckMode   .... Total+1el-Energy
 Convergence forced     ConvForced      .... 0
 Energy Change          TolE            ....  1.000e-08 Eh
 1-El. energy change                    ....  1.000e-05 Eh
 Orbital Gradient       TolG            ....  1.000e-05
 Orbital Rotation angle TolX            ....  1.000e-05
 DIIS Error             TolErr          ....  5.000e-07


Diagonalization of the overlap matrix:
Smallest eigenvalue                        ... 1.084e-04
Time for diagonalization                   ...    0.019 sec
Threshold for overlap eigenvalues          ... 1.000e-08
Number of eigenvalues below threshold      ... 0
Time for construction of square roots      ...    0.011 sec
Total time needed                          ...    0.031 sec

-------------------
DFT GRID GENERATION
-------------------

General Integration Accuracy     IntAcc      ...  4.340
Radial Grid Type                 RadialGrid  ... Gauss-Chebyshev
Angular Grid (max. acc.)         AngularGrid ... Lebedev-110
Angular grid pruning method      GridPruning ... 3 (G Style)
Weight generation scheme         WeightScheme... Becke
Basis function cutoff            BFCut       ...    1.0000e-11
Integration weight cutoff        WCut        ...    1.0000e-14
Grids for H and He will be reduced by one unit

# of grid points (after initial pruning)     ...  21052 (   0.0 sec)
# of grid points (after weights+screening)   ...  19412 (   0.1 sec)
nearest neighbour list constructed           ...    0.0 sec
Grid point re-assignment to atoms done       ...    0.0 sec
Grid point division into batches done        ...    0.0 sec
Reduced shell lists constructed in    0.5 sec

Total number of grid points                  ...    19412
Total number of batches                      ...      310
Average number of points per batch           ...       62
Average number of grid points per atom       ...      971
Average number of shells per batch           ...    83.06 (68.08%)
Average number of basis functions per batch  ...   185.36 (68.65%)
Average number of large shells per batch     ...    64.12 (77.20%)
Average number of large basis fcns per batch ...   142.52 (76.89%)
Maximum spatial batch extension              ...  19.00, 20.09, 25.60 au
Average spatial batch extension              ...   3.49,  3.97,  3.80 au

Time for grid setup =    0.546 sec

------------------------------
INITIAL GUESS: MODEL POTENTIAL
------------------------------
Loading Hartree-Fock densities                     ... done
Calculating cut-offs                               ... done
Setting up the integral package                    ... done
Initializing the effective Hamiltonian             ... done
Starting the Coulomb interaction                   ... done (   0.4 sec)
Reading the grid                                   ... done
Mapping shells                                     ... done
Starting the XC term evaluation                    ... done (   0.8 sec)
  promolecular density results
     # of electrons  =     50.000565867
     EX              =    -34.813023932
     EC              =     -1.606687836
     EX+EC           =    -36.419711768
Transforming the Hamiltonian                       ... done (   0.0 sec)
Diagonalizing the Hamiltonian                      ... done (   0.0 sec)
Back transforming the eigenvectors                 ... done (   0.0 sec)
Now organizing SCF variables                       ... done
                      ------------------
                      INITIAL GUESS DONE (   1.9 sec)
                      ------------------
--------------
SCF ITERATIONS
--------------
ITER       Energy         Delta-E        Max-DP      RMS-DP      [F,P]     Damp
               ***  Starting incremental Fock matrix formation  ***
  0   -236.5653963311   0.000000000000 0.03301776  0.00108108  0.1782042 0.7000
  1   -236.6862919873  -0.120895656184 0.02058269  0.00082747  0.0846055 0.7000
                               ***Turning on DIIS***
  2   -236.7277119490  -0.041419961695 0.03527724  0.00138408  0.0229705 0.0000
  3   -236.7840280564  -0.056316107389 0.01342784  0.00055138  0.0554601 0.0000
  4   -236.8056601109  -0.021632054509 0.00794986  0.00024274  0.0139840 0.0000
                      *** Initiating the SOSCF procedure ***
                           *** Shutting down DIIS ***
                      *** Re-Reading the Fockian *** 
                      *** Removing any level shift *** 
ITER      Energy       Delta-E        Grad      Rot      Max-DP    RMS-DP
  5   -236.80715456  -0.0014944536  0.001568  0.001568  0.004749  0.000123
               *** Restarting incremental Fock matrix formation ***
  6   -236.80727630  -0.0001217337  0.000680  0.002258  0.003976  0.000100
  7   -236.80727429   0.0000020100  0.000548  0.000446  0.000702  0.000015
  8   -236.80728861  -0.0000143260  0.000075  0.000315  0.000453  0.000012
  9   -236.80728877  -0.0000001608  0.000043  0.000079  0.000069  0.000002
 10   -236.80728885  -0.0000000798  0.000019  0.000038  0.000070  0.000002
 11   -236.80728885  -0.0000000002  0.000013  0.000019  0.000028  0.000001
                  ***Gradient check signals convergence***
              ***Rediagonalizing the Fockian in SOSCF/NRSCF***

               *****************************************************
               *                     SUCCESS                       *
               *           SCF CONVERGED AFTER  12 CYCLES          *
               *****************************************************

Setting up the final grid:

General Integration Accuracy     IntAcc      ...  4.670
Radial Grid Type                 RadialGrid  ... Gauss-Chebyshev
Angular Grid (max. acc.)         AngularGrid ... Lebedev-302
Angular grid pruning method      GridPruning ... 3 (G Style)
Weight generation scheme         WeightScheme... Becke
Basis function cutoff            BFCut       ...    1.0000e-11
Integration weight cutoff        WCut        ...    1.0000e-14
Grids for H and He will be reduced by one unit

# of grid points (after initial pruning)     ...  84788 (   0.0 sec)
# of grid points (after weights+screening)   ...  76836 (   0.3 sec)
nearest neighbour list constructed           ...    0.0 sec
Grid point re-assignment to atoms done       ...    0.0 sec
Grid point division into batches done        ...    0.2 sec
Reduced shell lists constructed in    4.5 sec

Total number of grid points                  ...    76836
Total number of batches                      ...     1212
Average number of points per batch           ...       63
Average number of grid points per atom       ...     3842
Average number of shells per batch           ...    76.27 (62.52%)
Average number of basis functions per batch  ...   169.93 (62.94%)
Average number of large shells per batch     ...    58.04 (76.10%)
Average number of large basis fcns per batch ...   128.59 (75.67%)
Maximum spatial batch extension              ...  18.73, 19.40, 20.45 au
Average spatial batch extension              ...   2.33,  2.45,  2.45 au

Final grid set up in    5.2 sec
Final integration                            ... done (   2.9 sec)
Change in XC energy                          ...     0.000890838
Integrated number of electrons               ...    49.999966316
Previous integrated no of electrons          ...    50.005060053

----------------
TOTAL SCF ENERGY
----------------

Total Energy       :         -236.80639803 Eh           -6443.82969 eV

Components:
Nuclear Repulsion  :          245.24456907 Eh            6673.44400 eV
Electronic Energy  :         -482.05096710 Eh          -13117.27368 eV
One Electron Energy:         -802.87563537 Eh          -21847.35674 eV
Two Electron Energy:          320.82466827 Eh            8730.08305 eV

Virial components:
Potential Energy   :         -472.48603841 Eh          -12856.99874 eV
Kinetic Energy     :          235.67964037 Eh            6413.16905 eV
Virial Ratio       :            2.00478089


DFT components:
N(Alpha)           :       24.999983158128 electrons
N(Beta)            :       24.999983158128 electrons
N(Total)           :       49.999966316256 electrons
E(X)               :      -35.896051311637 Eh       
E(C)               :       -1.605154608301 Eh       
E(XC)              :      -37.501205919938 Eh       

---------------
SCF CONVERGENCE
---------------

  Last Energy change         ...   -1.5562e-08  Tolerance :   1.0000e-08
  Last MAX-Density change    ...    8.1750e-06  Tolerance :   1.0000e-07
  Last RMS-Density change    ...    2.6168e-07  Tolerance :   5.0000e-09
  Last Orbital Gradient      ...    1.6959e-06  Tolerance :   1.0000e-05
  Last Orbital Rotation      ...    5.0974e-06  Tolerance :   1.0000e-05

             **** THE GBW FILE WAS UPDATED (opt.gbw) ****
             **** DENSITY FILE WAS UPDATED (opt.scfp.tmp) ****
             **** ENERGY FILE WAS UPDATED (opt.en.tmp) ****
----------------
ORBITAL ENERGIES
----------------

  NO   OCC          E(Eh)            E(eV) 
   0   2.0000      -9.871615      -268.6203 
   1   2.0000      -9.871612      -268.6202 
   2   2.0000      -9.869771      -268.5701 
   3   2.0000      -9.869677      -268.5676 
   4   2.0000      -9.863616      -268.4026 
   5   2.0000      -9.863615      -268.4026 
   6   2.0000      -0.731161       -19.8959 
   7   2.0000      -0.693696       -18.8764 
   8   2.0000      -0.636286       -17.3142 
   9   2.0000      -0.568164       -15.4605 
  10   2.0000      -0.517105       -14.0711 
  11   2.0000      -0.516616       -14.0578 
  12   2.0000      -0.433828       -11.8051 
  13   2.0000      -0.400598       -10.9008 
  14   2.0000      -0.385082       -10.4786 
  15   2.0000      -0.374016       -10.1775 
  16   2.0000      -0.355097        -9.6627 
  17   2.0000      -0.331670        -9.0252 
  18   2.0000      -0.327900        -8.9226 
  19   2.0000      -0.312337        -8.4991 
  20   2.0000      -0.298124        -8.1124 
  21   2.0000      -0.288874        -7.8607 
  22   2.0000      -0.286838        -7.8053 
  23   2.0000      -0.286007        -7.7826 
  24   2.0000      -0.254205        -6.9173 
  25   0.0000       0.013945         0.3795 
  26   0.0000       0.028441         0.7739 
  27   0.0000       0.048050         1.3075 
  28   0.0000       0.050225         1.3667 
  29   0.0000       0.055937         1.5221 
  30   0.0000       0.085455         2.3254 
  31   0.0000       0.089187         2.4269 
  32   0.0000       0.091899         2.5007 
  33   0.0000       0.103778         2.8239 
  34   0.0000       0.103788         2.8242 
  35   0.0000       0.109025         2.9667 
  36   0.0000       0.110961         3.0194 
  37   0.0000       0.136114         3.7038 
  38   0.0000       0.137943         3.7536 
  39   0.0000       0.144575         3.9341 
  40   0.0000       0.148424         4.0388 
  41   0.0000       0.158021         4.3000 
  42   0.0000       0.168109         4.5745 
  43   0.0000       0.176796         4.8109 
  44   0.0000       0.191782         5.2187 
  45   0.0000       0.210652         5.7321 
  46   0.0000       0.230385         6.2691 
  47   0.0000       0.240057         6.5323 
  48   0.0000       0.258802         7.0423 
  49   0.0000       0.262432         7.1411 
  50   0.0000       0.266264         7.2454 
  51   0.0000       0.278847         7.5878 
  52   0.0000       0.289058         7.8657 
  53   0.0000       0.298442         8.1210 
  54   0.0000       0.333357         9.0711 
  55   0.0000       0.335138         9.1196 
  56   0.0000       0.363928         9.9030 
  57   0.0000       0.374400        10.1879 
  58   0.0000       0.375501        10.2179 
  59   0.0000       0.380263        10.3475 
  60   0.0000       0.380458        10.3528 
  61   0.0000       0.411914        11.2088 
  62   0.0000       0.414747        11.2858 
  63   0.0000       0.422702        11.5023 
  64   0.0000       0.424291        11.5456 
  65   0.0000       0.428177        11.6513 
  66   0.0000       0.429815        11.6959 
  67   0.0000       0.442129        12.0310 
  68   0.0000       0.447389        12.1741 
  69   0.0000       0.449866        12.2415 
  70   0.0000       0.458377        12.4731 
  71   0.0000       0.463612        12.6155 
  72   0.0000       0.472637        12.8611 
  73   0.0000       0.482203        13.1214 
  74   0.0000       0.495267        13.4769 
  75   0.0000       0.527339        14.3496 
  76   0.0000       0.554929        15.1004 
  77   0.0000       0.556387        15.1401 
  78   0.0000       0.575737        15.6666 
  79   0.0000       0.608047        16.5458 
  80   0.0000       0.611614        16.6429 
  81   0.0000       0.657431        17.8896 
  82   0.0000       0.671671        18.2771 
  83   0.0000       0.705603        19.2004 
  84   0.0000       0.764776        20.8106 
  85   0.0000       0.775726        21.1086 
  86   0.0000       0.781940        21.2777 
  87   0.0000       0.795382        21.6435 
  88   0.0000       0.802532        21.8380 
  89   0.0000       0.811940        22.0940 
  90   0.0000       0.840061        22.8592 
  91   0.0000       0.852206        23.1897 
  92   0.0000       0.864082        23.5129 
  93   0.0000       0.931531        25.3483 
  94   0.0000       0.947049        25.7705 
  95   0.0000       0.974856        26.5272 
  96   0.0000       0.978787        26.6342 
  97   0.0000       0.997074        27.1318 
  98   0.0000       1.004335        27.3293 
  99   0.0000       1.011384        27.5212 
 100   0.0000       1.024686        27.8831 
 101   0.0000       1.036187        28.1961 
 102   0.0000       1.054191        28.6860 
 103   0.0000       1.056025        28.7359 
 104   0.0000       1.084755        29.5177 
 105   0.0000       1.132873        30.8270 
 106   0.0000       1.134315        30.8663 
 107   0.0000       1.139377        31.0040 
 108   0.0000       1.195004        32.5177 
 109   0.0000       1.216441        33.1010 
 110   0.0000       1.263797        34.3897 
 111   0.0000       1.271306        34.5940 
 112   0.0000       1.382740        37.6263 
 113   0.0000       1.435165        39.0528 
 114   0.0000       1.450887        39.4807 
 115   0.0000       1.455955        39.6185 
 116   0.0000       1.460578        39.7443 
 117   0.0000       1.470902        40.0253 
 118   0.0000       1.479872        40.2694 
 119   0.0000       1.481218        40.3060 
 120   0.0000       1.494772        40.6748 
 121   0.0000       1.506458        40.9928 
 122   0.0000       1.523888        41.4671 
 123   0.0000       1.528319        41.5877 
 124   0.0000       1.553321        42.2680 
 125   0.0000       1.558150        42.3994 
 126   0.0000       1.575264        42.8651 
 127   0.0000       1.577257        42.9194 
 128   0.0000       1.647126        44.8206 
 129   0.0000       1.662813        45.2474 
 130   0.0000       1.678246        45.6674 
 131   0.0000       1.715053        46.6690 
 132   0.0000       1.741170        47.3796 
 133   0.0000       1.749564        47.6080 
 134   0.0000       1.766879        48.0792 
 135   0.0000       1.779128        48.4125 
 136   0.0000       1.782382        48.5011 
 137   0.0000       1.802792        49.0565 
 138   0.0000       1.805580        49.1323 
 139   0.0000       1.837627        50.0044 
 140   0.0000       1.852181        50.4004 
 141   0.0000       1.887921        51.3729 
 142   0.0000       1.897645        51.6375 
 143   0.0000       1.910433        51.9855 
 144   0.0000       1.913867        52.0790 
 145   0.0000       1.973132        53.6916 
 146   0.0000       2.032296        55.3016 
 147   0.0000       2.032819        55.3158 
 148   0.0000       2.070465        56.3402 
 149   0.0000       2.071717        56.3743 
 150   0.0000       2.151276        58.5392 
 151   0.0000       2.162268        58.8383 
 152   0.0000       2.178869        59.2900 
 153   0.0000       2.232428        60.7474 
 154   0.0000       2.242060        61.0096 
 155   0.0000       2.250098        61.2283 
 156   0.0000       2.260641        61.5152 
 157   0.0000       2.263834        61.6021 
 158   0.0000       2.282226        62.1025 
 159   0.0000       2.306511        62.7634 
 160   0.0000       2.333759        63.5048 
 161   0.0000       2.345653        63.8285 
 162   0.0000       2.352670        64.0194 
 163   0.0000       2.398892        65.2772 
 164   0.0000       2.411029        65.6074 
 165   0.0000       2.426607        66.0313 
 166   0.0000       2.431044        66.1521 
 167   0.0000       2.477491        67.4160 
 168   0.0000       2.480781        67.5055 
 169   0.0000       2.484100        67.5958 
 170   0.0000       2.484466        67.6058 
 171   0.0000       2.507775        68.2400 
 172   0.0000       2.534134        68.9573 
 173   0.0000       2.535568        68.9963 
 174   0.0000       2.539094        69.0922 
 175   0.0000       2.541193        69.1494 
 176   0.0000       2.543103        69.2014 
 177   0.0000       2.594542        70.6011 
 178   0.0000       2.612752        71.0966 
 179   0.0000       2.614041        71.1317 
 180   0.0000       2.616912        71.2098 
 181   0.0000       2.621614        71.3377 
 182   0.0000       2.636389        71.7398 
 183   0.0000       2.648420        72.0672 
 184   0.0000       2.652939        72.1901 
 185   0.0000       2.687090        73.1194 
 186   0.0000       2.690696        73.2176 
 187   0.0000       2.720584        74.0308 
 188   0.0000       2.729782        74.2811 
 189   0.0000       2.819286        76.7167 
 190   0.0000       2.865517        77.9747 
 191   0.0000       2.903352        79.0042 
 192   0.0000       2.913870        79.2904 
 193   0.0000       2.933722        79.8306 
 194   0.0000       2.988533        81.3221 
 195   0.0000       3.003797        81.7375 
 196   0.0000       3.020763        82.1991 
 197   0.0000       3.024672        82.3055 
 198   0.0000       3.055915        83.1557 
 199   0.0000       3.088273        84.0362 
 200   0.0000       3.106280        84.5262 
 201   0.0000       3.120817        84.9217 
 202   0.0000       3.156601        85.8955 
 203   0.0000       3.158181        85.9385 
 204   0.0000       3.167559        86.1936 
 205   0.0000       3.179048        86.5063 
 206   0.0000       3.206571        87.2552 
 207   0.0000       3.225058        87.7583 
 208   0.0000       3.229786        87.8870 
 209   0.0000       3.242135        88.2230 
 210   0.0000       3.262326        88.7724 
 211   0.0000       3.278126        89.2023 
 212   0.0000       3.336873        90.8009 
 213   0.0000       3.337304        90.8126 
 214   0.0000       3.344627        91.0119 
 215   0.0000       3.367593        91.6369 
 216   0.0000       3.378913        91.9449 
 217   0.0000       3.386208        92.1434 
 218   0.0000       3.408913        92.7613 
 219   0.0000       3.431082        93.3645 
 220   0.0000       3.455820        94.0376 
 221   0.0000       3.461952        94.2045 
 222   0.0000       3.466426        94.3262 
 223   0.0000       3.472638        94.4953 
 224   0.0000       3.486225        94.8650 
 225   0.0000       3.523829        95.8883 
 226   0.0000       3.542819        96.4050 
 227   0.0000       3.573590        97.2423 
 228   0.0000       3.625085        98.6436 
 229   0.0000       3.673731        99.9673 
 230   0.0000       3.738426       101.7277 
 231   0.0000       3.747896       101.9854 
 232   0.0000       3.788405       103.0877 
 233   0.0000       3.806876       103.5904 
 234   0.0000       3.809725       103.6679 
 235   0.0000       3.815617       103.8282 
 236   0.0000       3.816931       103.8640 
 237   0.0000       3.857714       104.9737 
 238   0.0000       3.916281       106.5674 
 239   0.0000       3.939294       107.1936 
 240   0.0000       3.941362       107.2499 
 241   0.0000       3.996851       108.7598 
 242   0.0000       4.111550       111.8810 
 243   0.0000       4.142100       112.7123 
 244   0.0000       4.186931       113.9322 
 245   0.0000       4.203382       114.3798 
 246   0.0000       4.207562       114.4936 
 247   0.0000       4.304050       117.1191 
 248   0.0000       4.308753       117.2471 
 249   0.0000       4.354329       118.4873 
 250   0.0000       4.391512       119.4991 
 251   0.0000       4.422929       120.3540 
 252   0.0000       4.461652       121.4077 
 253   0.0000       4.477041       121.8265 
 254   0.0000       4.493312       122.2692 
 255   0.0000       4.520495       123.0089 
 256   0.0000       4.548610       123.7740 
 257   0.0000       4.563699       124.1846 
 258   0.0000       4.606058       125.3372 
 259   0.0000       4.618496       125.6757 
 260   0.0000       4.737766       128.9212 
 261   0.0000       4.804944       130.7492 
 262   0.0000       4.999701       136.0488 
 263   0.0000       5.100832       138.8007 
 264   0.0000      22.023103       599.2791 
 265   0.0000      22.053254       600.0996 
 266   0.0000      22.106030       601.5357 
 267   0.0000      22.162145       603.0626 
 268   0.0000      22.233480       605.0038 
 269   0.0000      22.244133       605.2936 

                    ********************************
                    * MULLIKEN POPULATION ANALYSIS *
                    ********************************

-----------------------
MULLIKEN ATOMIC CHARGES
-----------------------
   0 C :   -0.332444
   1 C :   -0.145089
   2 C :   -0.187876
   3 C :   -0.187876
   4 C :   -0.145089
   5 C :   -0.332444
   6 H :    0.119985
   7 H :    0.108070
   8 H :    0.102226
   9 H :    0.088367
  10 H :    0.083827
  11 H :    0.082657
  12 H :    0.080277
  13 H :    0.082657
  14 H :    0.080277
  15 H :    0.088367
  16 H :    0.083827
  17 H :    0.119985
  18 H :    0.102226
  19 H :    0.108070
Sum of atomic charges:   -0.0000000

--------------------------------
MULLIKEN REDUCED ORBITAL CHARGES
--------------------------------
  0 C s       :     3.241025  s :     3.241025
      pz      :     1.044516  p :     3.039851
      px      :     0.966059
      py      :     1.029277
      dz2     :     0.007606  d :     0.048401
      dxz     :     0.009127
      dyz     :     0.008418
      dx2y2   :     0.007383
      dxy     :     0.015868
      f0      :     0.000359  f :     0.003166
      f+1     :     0.000332
      f-1     :     0.000581
      f+2     :     0.000227
      f-2     :     0.000372
      f+3     :     0.000843
      f-3     :     0.000453
  1 C s       :     3.174316  s :     3.174316
      pz      :     0.999667  p :     2.875985
      px      :     0.922124
      py      :     0.954194
      dz2     :     0.009376  d :     0.089397
      dxz     :     0.015067
      dyz     :     0.020319
      dx2y2   :     0.022945
      dxy     :     0.021690
      f0      :     0.000682  f :     0.005391
      f+1     :     0.000435
      f-1     :     0.000617
      f+2     :     0.000259
      f-2     :     0.000961
      f+3     :     0.001258
      f-3     :     0.001179
  2 C s       :     3.179416  s :     3.179416
      pz      :     1.010773  p :     2.917412
      px      :     0.944764
      py      :     0.961875
      dz2     :     0.008772  d :     0.085708
      dxz     :     0.014421
      dyz     :     0.021292
      dx2y2   :     0.022219
      dxy     :     0.019005
      f0      :     0.000681  f :     0.005340
      f+1     :     0.000423
      f-1     :     0.000615
      f+2     :     0.000261
      f-2     :     0.000978
      f+3     :     0.001200
      f-3     :     0.001182
  3 C s       :     3.179416  s :     3.179416
      pz      :     1.010773  p :     2.917412
      px      :     0.944764
      py      :     0.961875
      dz2     :     0.008772  d :     0.085708
      dxz     :     0.014421
      dyz     :     0.021292
      dx2y2   :     0.022219
      dxy     :     0.019005
      f0      :     0.000681  f :     0.005340
      f+1     :     0.000423
      f-1     :     0.000615
      f+2     :     0.000261
      f-2     :     0.000978
      f+3     :     0.001200
      f-3     :     0.001182
  4 C s       :     3.174317  s :     3.174317
      pz      :     0.999667  p :     2.875985
      px      :     0.922124
      py      :     0.954194
      dz2     :     0.009376  d :     0.089397
      dxz     :     0.015067
      dyz     :     0.020319
      dx2y2   :     0.022945
      dxy     :     0.021690
      f0      :     0.000682  f :     0.005391
      f+1     :     0.000435
      f-1     :     0.000617
      f+2     :     0.000259
      f-2     :     0.000961
      f+3     :     0.001258
      f-3     :     0.001179
  5 C s       :     3.241025  s :     3.241025
      pz      :     1.044516  p :     3.039851
      px      :     0.966059
      py      :     1.029277
      dz2     :     0.007606  d :     0.048401
      dxz     :     0.009127
      dyz     :     0.008418
      dx2y2   :     0.007383
      dxy     :     0.015868
      f0      :     0.000359  f :     0.003166
      f+1     :     0.000332
      f-1     :     0.000581
      f+2     :     0.000227
      f-2     :     0.000372
      f+3     :     0.000843
      f-3     :     0.000453
  6 H s       :     0.858859  s :     0.858859
      pz      :     0.004649  p :     0.021156
      px      :     0.008222
      py      :     0.008285
  7 H s       :     0.870828  s :     0.870828
      pz      :     0.007417  p :     0.021101
      px      :     0.005671
      py      :     0.008013
  8 H s       :     0.876949  s :     0.876949
      pz      :     0.010376  p :     0.020825
      px      :     0.004729
      py      :     0.005721
  9 H s       :     0.890463  s :     0.890463
      pz      :     0.007272  p :     0.021169
      px      :     0.005389
      py      :     0.008507
 10 H s       :     0.894972  s :     0.894972
      pz      :     0.010477  p :     0.021201
      px      :     0.004735
      py      :     0.005989
 11 H s       :     0.896051  s :     0.896051
      pz      :     0.007291  p :     0.021292
      px      :     0.005484
      py      :     0.008517
 12 H s       :     0.898516  s :     0.898516
      pz      :     0.010458  p :     0.021207
      px      :     0.004731
      py      :     0.006019
 13 H s       :     0.896051  s :     0.896051
      pz      :     0.007291  p :     0.021292
      px      :     0.005484
      py      :     0.008517
 14 H s       :     0.898516  s :     0.898516
      pz      :     0.010458  p :     0.021207
      px      :     0.004731
      py      :     0.006019
 15 H s       :     0.890463  s :     0.890463
      pz      :     0.007272  p :     0.021169
      px      :     0.005389
      py      :     0.008507
 16 H s       :     0.894972  s :     0.894972
      pz      :     0.010477  p :     0.021201
      px      :     0.004735
      py      :     0.005989
 17 H s       :     0.858859  s :     0.858859
      pz      :     0.004649  p :     0.021156
      px      :     0.008222
      py      :     0.008285
 18 H s       :     0.876948  s :     0.876948
      pz      :     0.010376  p :     0.020825
      px      :     0.004729
      py      :     0.005721
 19 H s       :     0.870828  s :     0.870828
      pz      :     0.007417  p :     0.021101
      px      :     0.005671
      py      :     0.008013


                     *******************************
                     * LOEWDIN POPULATION ANALYSIS *
                     *******************************

----------------------
LOEWDIN ATOMIC CHARGES
----------------------
   0 C :   -0.320849
   1 C :   -0.294338
   2 C :   -0.268935
   3 C :   -0.268935
   4 C :   -0.294338
   5 C :   -0.320849
   6 H :    0.117649
   7 H :    0.118603
   8 H :    0.118391
   9 H :    0.131357
  10 H :    0.131177
  11 H :    0.133643
  12 H :    0.133304
  13 H :    0.133643
  14 H :    0.133304
  15 H :    0.131357
  16 H :    0.131177
  17 H :    0.117649
  18 H :    0.118391
  19 H :    0.118603

-------------------------------
LOEWDIN REDUCED ORBITAL CHARGES
-------------------------------
  0 C s       :     2.839356  s :     2.839356
      pz      :     1.074899  p :     3.200170
      px      :     1.052641
      py      :     1.072630
      dz2     :     0.049301  d :     0.256811
      dxz     :     0.039710
      dyz     :     0.046568
      dx2y2   :     0.040252
      dxy     :     0.080980
      f0      :     0.002282  f :     0.024512
      f+1     :     0.003882
      f-1     :     0.002551
      f+2     :     0.004260
      f-2     :     0.002593
      f+3     :     0.005707
      f-3     :     0.003237
  1 C s       :     2.788368  s :     2.788368
      pz      :     1.031377  p :     3.074115
      px      :     1.015641
      py      :     1.027097
      dz2     :     0.056836  d :     0.393525
      dxz     :     0.059757
      dyz     :     0.088179
      dx2y2   :     0.094190
      dxy     :     0.094563
      f0      :     0.004295  f :     0.038330
      f+1     :     0.004277
      f-1     :     0.003159
      f+2     :     0.004199
      f-2     :     0.006263
      f+3     :     0.008370
      f-3     :     0.007768
  2 C s       :     2.784431  s :     2.784431
      pz      :     1.028602  p :     3.056355
      px      :     1.004006
      py      :     1.023746
      dz2     :     0.056864  d :     0.389901
      dxz     :     0.057033
      dyz     :     0.088924
      dx2y2   :     0.092141
      dxy     :     0.094939
      f0      :     0.004241  f :     0.038249
      f+1     :     0.004157
      f-1     :     0.003169
      f+2     :     0.004132
      f-2     :     0.006350
      f+3     :     0.008313
      f-3     :     0.007886
  3 C s       :     2.784431  s :     2.784431
      pz      :     1.028602  p :     3.056355
      px      :     1.004006
      py      :     1.023746
      dz2     :     0.056864  d :     0.389901
      dxz     :     0.057033
      dyz     :     0.088924
      dx2y2   :     0.092141
      dxy     :     0.094939
      f0      :     0.004241  f :     0.038249
      f+1     :     0.004157
      f-1     :     0.003169
      f+2     :     0.004132
      f-2     :     0.006350
      f+3     :     0.008313
      f-3     :     0.007886
  4 C s       :     2.788368  s :     2.788368
      pz      :     1.031377  p :     3.074115
      px      :     1.015641
      py      :     1.027097
      dz2     :     0.056836  d :     0.393525
      dxz     :     0.059757
      dyz     :     0.088179
      dx2y2   :     0.094190
      dxy     :     0.094563
      f0      :     0.004295  f :     0.038330
      f+1     :     0.004277
      f-1     :     0.003159
      f+2     :     0.004199
      f-2     :     0.006263
      f+3     :     0.008370
      f-3     :     0.007768
  5 C s       :     2.839356  s :     2.839356
      pz      :     1.074899  p :     3.200170
      px      :     1.052641
      py      :     1.072630
      dz2     :     0.049301  d :     0.256811
      dxz     :     0.039710
      dyz     :     0.046568
      dx2y2   :     0.040252
      dxy     :     0.080980
      f0      :     0.002282  f :     0.024512
      f+1     :     0.003882
      f-1     :     0.002551
      f+2     :     0.004260
      f-2     :     0.002593
      f+3     :     0.005707
      f-3     :     0.003237
  6 H s       :     0.820148  s :     0.820148
      pz      :     0.013703  p :     0.062203
      px      :     0.022352
      py      :     0.026148
  7 H s       :     0.819374  s :     0.819374
      pz      :     0.022539  p :     0.062024
      px      :     0.015326
      py      :     0.024158
  8 H s       :     0.819601  s :     0.819601
      pz      :     0.031436  p :     0.062008
      px      :     0.013732
      py      :     0.016841
  9 H s       :     0.808454  s :     0.808454
      pz      :     0.021913  p :     0.060189
      px      :     0.015355
      py      :     0.022921
 10 H s       :     0.808695  s :     0.808695
      pz      :     0.030447  p :     0.060127
      px      :     0.013535
      py      :     0.016146
 11 H s       :     0.806055  s :     0.806055
      pz      :     0.021861  p :     0.060302
      px      :     0.015292
      py      :     0.023149
 12 H s       :     0.806442  s :     0.806442
      pz      :     0.030460  p :     0.060254
      px      :     0.013509
      py      :     0.016285
 13 H s       :     0.806055  s :     0.806055
      pz      :     0.021861  p :     0.060302
      px      :     0.015292
      py      :     0.023149
 14 H s       :     0.806442  s :     0.806442
      pz      :     0.030460  p :     0.060254
      px      :     0.013509
      py      :     0.016285
 15 H s       :     0.808454  s :     0.808454
      pz      :     0.021913  p :     0.060189
      px      :     0.015355
      py      :     0.022921
 16 H s       :     0.808695  s :     0.808695
      pz      :     0.030447  p :     0.060127
      px      :     0.013535
      py      :     0.016146
 17 H s       :     0.820148  s :     0.820148
      pz      :     0.013703  p :     0.062203
      px      :     0.022352
      py      :     0.026148
 18 H s       :     0.819601  s :     0.819601
      pz      :     0.031436  p :     0.062008
      px      :     0.013732
      py      :     0.016841
 19 H s       :     0.819374  s :     0.819374
      pz      :     0.022539  p :     0.062024
      px      :     0.015326
      py      :     0.024158


                      *****************************
                      * MAYER POPULATION ANALYSIS *
                      *****************************

  NA   - Mulliken gross atomic population
  ZA   - Total nuclear charge
  QA   - Mulliken gross atomic charge
  VA   - Mayer's total valence
  BVA  - Mayer's bonded valence
  FA   - Mayer's free valence

  ATOM       NA         ZA         QA         VA         BVA        FA
  0 C      6.3324     6.0000    -0.3324     3.9133     3.9133    -0.0000
  1 C      6.1451     6.0000    -0.1451     3.9464     3.9464     0.0000
  2 C      6.1879     6.0000    -0.1879     3.9944     3.9944    -0.0000
  3 C      6.1879     6.0000    -0.1879     3.9944     3.9944    -0.0000
  4 C      6.1451     6.0000    -0.1451     3.9464     3.9464    -0.0000
  5 C      6.3324     6.0000    -0.3324     3.9133     3.9133     0.0000
  6 H      0.8800     1.0000     0.1200     0.9657     0.9657     0.0000
  7 H      0.8919     1.0000     0.1081     0.9732     0.9732    -0.0000
  8 H      0.8978     1.0000     0.1022     0.9789     0.9789    -0.0000
  9 H      0.9116     1.0000     0.0884     0.9686     0.9686     0.0000
 10 H      0.9162     1.0000     0.0838     0.9725     0.9725    -0.0000
 11 H      0.9173     1.0000     0.0827     0.9748     0.9748     0.0000
 12 H      0.9197     1.0000     0.0803     0.9780     0.9780     0.0000
 13 H      0.9173     1.0000     0.0827     0.9748     0.9748     0.0000
 14 H      0.9197     1.0000     0.0803     0.9780     0.9780     0.0000
 15 H      0.9116     1.0000     0.0884     0.9686     0.9686     0.0000
 16 H      0.9162     1.0000     0.0838     0.9725     0.9725    -0.0000
 17 H      0.8800     1.0000     0.1200     0.9657     0.9657    -0.0000
 18 H      0.8978     1.0000     0.1022     0.9789     0.9789    -0.0000
 19 H      0.8919     1.0000     0.1081     0.9732     0.9732    -0.0000

  Mayer bond orders larger than 0.1
B(  0-C ,  1-C ) :   1.0064 B(  0-C , 17-H ) :   0.9697 B(  0-C , 18-H ) :   0.9670 
B(  0-C , 19-H ) :   0.9686 B(  1-C ,  2-C ) :   1.0414 B(  1-C , 15-H ) :   0.9542 
B(  1-C , 16-H ) :   0.9495 B(  2-C ,  3-C ) :   1.0439 B(  2-C , 13-H ) :   0.9483 
B(  2-C , 14-H ) :   0.9454 B(  3-C ,  4-C ) :   1.0414 B(  3-C , 11-H ) :   0.9483 
B(  3-C , 12-H ) :   0.9454 B(  4-C ,  5-C ) :   1.0064 B(  4-C ,  9-H ) :   0.9542 
B(  4-C , 10-H ) :   0.9495 B(  5-C ,  6-H ) :   0.9697 B(  5-C ,  7-H ) :   0.9686 
B(  5-C ,  8-H ) :   0.9670 

-------
TIMINGS
-------

Total SCF time: 0 days 0 hours 0 min 43 sec 

Total time                  ....      43.298 sec
Sum of individual times     ....      40.721 sec  ( 94.0%)

Fock matrix formation       ....      33.024 sec  ( 76.3%)
  Split-RI-J                ....      12.159 sec  ( 36.8% of F)
  XC integration            ....      18.441 sec  ( 55.8% of F)
    Basis function eval.    ....       4.695 sec  ( 25.5% of XC)
    Density eval.           ....       5.027 sec  ( 27.3% of XC)
    XC-Functional eval.     ....       2.020 sec  ( 11.0% of XC)
    XC-Potential eval.      ....       4.934 sec  ( 26.8% of XC)
Diagonalization             ....       0.160 sec  (  0.4%)
Density matrix formation    ....       0.012 sec  (  0.0%)
Population analysis         ....       0.061 sec  (  0.1%)
Initial guess               ....       1.350 sec  (  3.1%)
Orbital Transformation      ....       0.000 sec  (  0.0%)
Orbital Orthonormalization  ....       0.000 sec  (  0.0%)
DIIS solution               ....       0.090 sec  (  0.2%)
SOSCF solution              ....       0.242 sec  (  0.6%)
Grid generation             ....       5.780 sec  ( 13.3%)

-------------------------   --------------------
FINAL SINGLE POINT ENERGY      -236.806398032787
-------------------------   --------------------

------------------------------------------------------------------------------
                         ORCA SCF GRADIENT CALCULATION
------------------------------------------------------------------------------

Gradient of the Kohn-Sham DFT energy:
Kohn-Sham wavefunction type      ... RKS
Hartree-Fock exchange scaling    ...    0.000
Number of operators              ...    1
Number of atoms                  ...   20
Basis set dimensions             ...  270
Integral neglect threshold       ... 2.5e-11
Integral primitive cutoff        ... 2.5e-12

Nuclear repulsion gradient       ... done
One Electron Gradient            ... done
Pre-screening matrix             ... done
RI-J gradient                    ... done
Exchange-correlation gradient    ... done

------------------
CARTESIAN GRADIENT
------------------

   1   C   :   -0.010915746   -0.011833277   -0.005170199
   2   C   :    0.010317890    0.025551092    0.007688168
   3   C   :   -0.006505381   -0.032190822   -0.008241165
   4   C   :    0.006505379    0.032190816    0.008241165
   5   C   :   -0.010317897   -0.025551080   -0.007688171
   6   C   :    0.010915749    0.011833281    0.005170200
   7   H   :   -0.007769326    0.001724819   -0.001587931
   8   H   :   -0.004442044   -0.004606150    0.001989290
   9   H   :   -0.002889325   -0.003007108   -0.005311048
  10   H   :    0.002954590    0.006807454   -0.002064583
  11   H   :    0.001092442    0.005255025    0.005440388
  12   H   :   -0.002544474   -0.006959460    0.002510318
  13   H   :   -0.000613592   -0.005259741   -0.005864144
  14   H   :    0.002544472    0.006959462   -0.002510319
  15   H   :    0.000613594    0.005259742    0.005864145
  16   H   :   -0.002954592   -0.006807459    0.002064587
  17   H   :   -0.001092441   -0.005255025   -0.005440388
  18   H   :    0.007769335   -0.001724825    0.001587933
  19   H   :    0.002889323    0.003007105    0.005311046
  20   H   :    0.004442045    0.004606150   -0.001989291

Difference to translation invariance:
           :   -0.0000000000    0.0000000000   -0.0000000000

Norm of the cartesian gradient     ...    0.0727813718
RMS gradient                       ...    0.0093960347
MAX gradient                       ...    0.0321908216

-------
TIMINGS
-------

Total SCF gradient time            ...       17.366 sec

One electron gradient       ....       0.461 sec  (  2.7%)
Prescreening matrices       ....       0.490 sec  (  2.8%)
RI-J Coulomb gradient       ....       3.147 sec  ( 18.1%)
XC gradient                 ....      13.059 sec  ( 75.2%)
------------------------------------------------------------------------------
                         ORCA GEOMETRY RELAXATION STEP
------------------------------------------------------------------------------

Reading the OPT-File                    .... done
Getting information on internals        .... done
Copying old internal coords+grads       .... done
Making the new internal coordinates     .... (new redundants).... done
Validating the new internal coordinates .... (new redundants).... done
Calculating the B-matrix                .... done
Calculating the G,G- and P matrices     .... done
Transforming gradient to internals      .... done
Projecting the internal gradient        .... done
Number of atoms                         ....  20
Number of internal coordinates          .... 100
Current Energy                          ....  -236.806398033 Eh
Current gradient norm                   ....     0.072781372 Eh/bohr
Maximum allowed component of the step   ....  0.300
Current trust radius                    ....  0.300
Evaluating the initial hessian          ....  (Almloef) done
Projecting the Hessian                  .... done
Forming the augmented Hessian           .... done
Diagonalizing the augmented Hessian     .... done
Last element of RFO vector              ....  0.984529019
Lowest eigenvalues of augmented Hessian:
 -0.006474749  0.010402923  0.010402923  0.010402923  0.010402923
Length of the computed step             ....  0.177975054
The final length of the internal step   ....  0.177975054
Converting the step to cartesian space:
 Initial RMS(Int)=    0.0177975054
Transforming coordinates:
 Iter   0:  RMS(Cart)=    0.0503669194 RMS(Int)=    1.7758417051
 Iter   1:  RMS(Cart)=    0.0007314865 RMS(Int)=    0.0002430323
 Iter   2:  RMS(Cart)=    0.0000141275 RMS(Int)=    0.0000048843
 Iter   3:  RMS(Cart)=    0.0000005547 RMS(Int)=    0.0000001658
 Iter   4:  RMS(Cart)=    0.0000000102 RMS(Int)=    0.0000000034
done
Storing new coordinates                 .... done

                                .--------------------.
          ----------------------|Geometry convergence|-------------------------
          Item                value                   Tolerance       Converged
          ---------------------------------------------------------------------
          RMS gradient        0.0042661797            0.0001000000      NO
          MAX gradient        0.0138574942            0.0003000000      NO
          RMS step            0.0177975054            0.0020000000      NO
          MAX step            0.0493107719            0.0040000000      NO
          ........................................................
          Max(Bonds)      0.0107      Max(Angles)    2.83
          Max(Dihed)        2.06      Max(Improp)    0.00
          ---------------------------------------------------------------------

The optimization has not yet converged - more geometry cycles are needed


    ---------------------------------------------------------------------------
                         Redundant Internal Coordinates
                            (Angstroem and degrees)

        Definition                    Value    dE/dq     Step     New-Value
    ----------------------------------------------------------------------------
     1. B(C   1,C   0)                1.5400 -0.001726  0.0025    1.5425   
     2. B(C   2,C   1)                1.5400 -0.001059  0.0015    1.5415   
     3. B(C   3,C   2)                1.5400 -0.002047  0.0030    1.5430   
     4. B(C   4,C   3)                1.5400 -0.001059  0.0015    1.5415   
     5. B(C   5,C   4)                1.5400 -0.001726  0.0025    1.5425   
     6. B(H   6,C   5)                1.0900 -0.006363  0.0092    1.0992   
     7. B(H   7,C   5)                1.0900 -0.005888  0.0085    1.0985   
     8. B(H   8,C   5)                1.0900 -0.005886  0.0085    1.0985   
     9. B(H   9,C   4)                1.0900 -0.007022  0.0101    1.1001   
    10. B(H  10,C   4)                1.0900 -0.006976  0.0101    1.1001   
    11. B(H  11,C   3)                1.0900 -0.007290  0.0105    1.1005   
    12. B(H  12,C   3)                1.0900 -0.007400  0.0107    1.1007   
    13. B(H  13,C   2)                1.0900 -0.007290  0.0105    1.1005   
    14. B(H  14,C   2)                1.0900 -0.007400  0.0107    1.1007   
    15. B(H  15,C   1)                1.0900 -0.007022  0.0101    1.1001   
    16. B(H  16,C   1)                1.0900 -0.006976  0.0101    1.1001   
    17. B(H  17,C   0)                1.0900 -0.006363  0.0092    1.0992   
    18. B(H  18,C   0)                1.0900 -0.005886  0.0085    1.0985   
    19. B(H  19,C   0)                1.0900 -0.005888  0.0085    1.0985   
    20. A(C   1,C   0,H  17)          109.47 -0.006118    1.16    110.63   
    21. A(C   1,C   0,H  18)          109.47 -0.002971    0.52    109.99   
    22. A(H  18,C   0,H  19)          109.47  0.003386   -0.74    108.73   
    23. A(C   1,C   0,H  19)          109.47 -0.002812    0.50    109.97   
    24. A(H  17,C   0,H  19)          109.47  0.004173   -0.69    108.78   
    25. A(H  17,C   0,H  18)          109.47  0.004343   -0.75    108.72   
    26. A(C   2,C   1,H  15)          109.47  0.003268   -0.41    109.06   
    27. A(C   0,C   1,H  15)          109.47  0.002491   -0.15    109.33   
    28. A(C   0,C   1,H  16)          109.47  0.002592   -0.18    109.29   
    29. A(C   2,C   1,H  16)          109.47  0.003240   -0.42    109.05   
    30. A(C   0,C   1,C   2)          109.47 -0.011463    2.40    111.87   
    31. A(H  15,C   1,H  16)          109.47 -0.000128   -1.24    108.23   
    32. A(H  13,C   2,H  14)          109.47 -0.000650   -1.24    108.23   
    33. A(C   3,C   2,H  14)          109.47  0.003510   -0.36    109.11   
    34. A(C   3,C   2,H  13)          109.47  0.003529   -0.36    109.11   
    35. A(C   1,C   2,H  13)          109.47  0.003702   -0.42    109.05   
    36. A(C   1,C   2,C   3)          109.47 -0.013857    2.83    112.30   
    37. A(C   1,C   2,H  14)          109.47  0.003766   -0.45    109.02   
    38. A(C   2,C   3,C   4)          109.47 -0.013857    2.83    112.30   
    39. A(H  11,C   3,H  12)          109.47 -0.000650   -1.24    108.23   
    40. A(C   4,C   3,H  12)          109.47  0.003766   -0.45    109.02   
    41. A(C   2,C   3,H  12)          109.47  0.003510   -0.36    109.11   
    42. A(C   4,C   3,H  11)          109.47  0.003702   -0.42    109.05   
    43. A(C   2,C   3,H  11)          109.47  0.003529   -0.36    109.11   
    44. A(H   9,C   4,H  10)          109.47 -0.000128   -1.24    108.23   
    45. A(C   5,C   4,H  10)          109.47  0.002592   -0.18    109.29   
    46. A(C   3,C   4,H  10)          109.47  0.003240   -0.42    109.05   
    47. A(C   5,C   4,H   9)          109.47  0.002491   -0.15    109.33   
    48. A(C   3,C   4,H   9)          109.47  0.003268   -0.41    109.06   
    49. A(C   3,C   4,C   5)          109.47 -0.011463    2.40    111.87   
    50. A(H   6,C   5,H   7)          109.47  0.004173   -0.69    108.78   
    51. A(C   4,C   5,H   7)          109.47 -0.002812    0.50    109.97   
    52. A(H   7,C   5,H   8)          109.47  0.003386   -0.74    108.73   
    53. A(C   4,C   5,H   6)          109.47 -0.006118    1.16    110.63   
    54. A(H   6,C   5,H   8)          109.47  0.004343   -0.75    108.72   
    55. A(C   4,C   5,H   8)          109.47 -0.002971    0.52    109.99   
    56. D(H  15,C   1,C   0,H  19)    180.00 -0.001148    0.68    180.68   
    57. D(H  16,C   1,C   0,H  18)   -180.00  0.001202   -0.77   -180.77   
    58. D(H  15,C   1,C   0,H  18)     60.00 -0.001754    0.95     60.95   
    59. D(H  16,C   1,C   0,H  19)    -60.00  0.001808   -1.05    -61.05   
    60. D(H  15,C   1,C   0,H  17)    -60.00 -0.001506    0.84    -59.16   
    61. D(C   2,C   1,C   0,H  19)     60.00  0.000344   -0.20     59.80   
    62. D(C   2,C   1,C   0,H  18)    -60.00 -0.000262    0.07    -59.93   
    63. D(C   2,C   1,C   0,H  17)    180.00 -0.000014   -0.04    179.96   
    64. D(H  16,C   1,C   0,H  17)     60.00  0.001450   -0.88     59.12   
    65. D(H  13,C   2,C   1,H  15)    180.00  0.000034    0.03    180.03   
    66. D(C   3,C   2,C   1,H  16)    -60.00 -0.001898    1.02    -58.98   
    67. D(C   3,C   2,C   1,C   0)   -180.00 -0.000038    0.03   -179.97   
    68. D(H  13,C   2,C   1,C   0)    -60.00 -0.001933    1.07    -58.93   
    69. D(H  13,C   2,C   1,H  16)     60.00 -0.003794    2.06     62.06   
    70. D(H  14,C   2,C   1,H  16)   -180.00 -0.000017    0.01   -179.99   
    71. D(H  14,C   2,C   1,H  15)    -60.00  0.003811   -2.02    -62.02   
    72. D(H  14,C   2,C   1,C   0)     60.00  0.001844   -0.98     59.02   
    73. D(C   3,C   2,C   1,H  15)     60.00  0.001930   -1.01     58.99   
    74. D(H  12,C   3,C   2,H  13)    -60.00  0.003514   -1.96    -61.96   
    75. D(H  12,C   3,C   2,C   1)     60.00  0.001724   -0.96     59.04   
    76. D(H  11,C   3,C   2,H  14)     60.00 -0.003514    1.96     61.96   
    77. D(H  11,C   3,C   2,H  13)   -180.00  0.000000   -0.00   -180.00   
    78. D(H  11,C   3,C   2,C   1)    -60.00 -0.001790    0.99    -59.01   
    79. D(C   4,C   3,C   2,H  13)     60.00  0.001790   -0.99     59.01   
    80. D(C   4,C   3,C   2,H  14)    -60.00 -0.001724    0.96    -59.04   
    81. D(H  12,C   3,C   2,H  14)    180.00 -0.000000    0.00    180.00   
    82. D(C   4,C   3,C   2,C   1)   -180.00 -0.000000   -0.00   -180.00   
    83. D(H   9,C   4,C   3,C   2)    -60.00 -0.001930    1.01    -58.99   
    84. D(C   5,C   4,C   3,H  12)    -60.00 -0.001844    0.98    -59.02   
    85. D(C   5,C   4,C   3,H  11)     60.00  0.001933   -1.07     58.93   
    86. D(C   5,C   4,C   3,C   2)    180.00  0.000038   -0.03    179.97   
    87. D(H  10,C   4,C   3,H  12)   -180.00  0.000017   -0.01   -180.01   
    88. D(H  10,C   4,C   3,H  11)    -60.00  0.003794   -2.06    -62.06   
    89. D(H  10,C   4,C   3,C   2)     60.00  0.001898   -1.02     58.98   
    90. D(H   9,C   4,C   3,H  12)     60.00 -0.003811    2.02     62.02   
    91. D(H   9,C   4,C   3,H  11)   -180.00 -0.000034   -0.03   -180.03   
    92. D(H   8,C   5,C   4,H  10)    180.00 -0.001202    0.77    180.77   
    93. D(H   8,C   5,C   4,H   9)    -60.00  0.001754   -0.95    -60.95   
    94. D(H   8,C   5,C   4,C   3)     60.00  0.000262   -0.07     59.93   
    95. D(H   7,C   5,C   4,H  10)     60.00 -0.001808    1.05     61.05   
    96. D(H   7,C   5,C   4,H   9)    180.00  0.001148   -0.68    179.32   
    97. D(H   7,C   5,C   4,C   3)    -60.00 -0.000344    0.20    -59.80   
    98. D(H   6,C   5,C   4,H  10)    -60.00 -0.001450    0.88    -59.12   
    99. D(H   6,C   5,C   4,H   9)     60.00  0.001506   -0.84     59.16   
   100. D(H   6,C   5,C   4,C   3)    180.00  0.000014    0.04    180.04   
    ----------------------------------------------------------------------------

         *************************************************************
         *                GEOMETRY OPTIMIZATION CYCLE   2            *
         *************************************************************
---------------------------------
CARTESIAN COORDINATES (ANGSTROEM)
---------------------------------
  C     -0.048613    0.013540   -0.008547
  C      1.349604    0.505331    0.418551
  C      2.381813   -0.639531    0.430719
  C      3.784294   -0.158341    0.857582
  C      4.816504   -1.303202    0.869749
  C      6.214721   -0.811411    1.296848
  H      6.933863   -1.642700    1.297850
  H      6.569052   -0.038308    0.601534
  H      6.169609   -0.383123    2.307407
  H      4.477408   -2.084964    1.565568
  H      4.877675   -1.741967   -0.137177
  H      4.123944    0.623798    0.161844
  H      3.723348    0.280215    1.865280
  H      2.042164   -1.421670    1.126456
  H      2.442760   -1.078086   -0.576979
  H      1.688699    1.287093   -0.277268
  H      1.288433    0.944096    1.425477
  H     -0.767756    0.844829   -0.009549
  H     -0.003502   -0.414748   -1.019106
  H     -0.402945   -0.759563    0.686767

----------------------------
CARTESIAN COORDINATES (A.U.)
----------------------------
  NO LB      ZA    FRAG     MASS         X           Y           Z
   0 C     6.0000    0    12.011   -0.091866    0.025587   -0.016152
   1 C     6.0000    0    12.011    2.550381    0.954937    0.790948
   2 C     6.0000    0    12.011    4.500975   -1.208538    0.813940
   3 C     6.0000    0    12.011    7.151280   -0.299221    1.620595
   4 C     6.0000    0    12.011    9.101874   -2.462695    1.643587
   5 C     6.0000    0    12.011   11.744120   -1.533345    2.450687
   6 H     1.0000    0     1.008   13.103103   -3.104254    2.452581
   7 H     1.0000    0     1.008   12.413710   -0.072392    1.136734
   8 H     1.0000    0     1.008   11.658872   -0.723998    4.360367
   9 H     1.0000    0     1.008    8.461076   -3.940011    2.958495
  10 H     1.0000    0     1.008    9.217469   -3.291841   -0.259226
  11 H     1.0000    0     1.008    7.793124    1.178808    0.305842
  12 H     1.0000    0     1.008    7.036108    0.529530    3.524868
  13 H     1.0000    0     1.008    3.859131   -2.686566    2.128693
  14 H     1.0000    0     1.008    4.616147   -2.037288   -1.090333
  15 H     1.0000    0     1.008    3.191179    2.432253   -0.523960
[...]
 229   0.0000       3.653055        99.4047 
 230   0.0000       3.739447       101.7555 
 231   0.0000       3.745807       101.9286 
 232   0.0000       3.758209       102.2661 
 233   0.0000       3.801455       103.4429 
 234   0.0000       3.811783       103.7239 
 235   0.0000       3.818350       103.9026 
 236   0.0000       3.824402       104.0673 
 237   0.0000       3.840658       104.5096 
 238   0.0000       3.905957       106.2865 
 239   0.0000       3.908117       106.3453 
 240   0.0000       3.928699       106.9053 
 241   0.0000       3.975514       108.1792 
 242   0.0000       4.081261       111.0568 
 243   0.0000       4.094610       111.4200 
 244   0.0000       4.178994       113.7162 
 245   0.0000       4.192928       114.0954 
 246   0.0000       4.199956       114.2866 
 247   0.0000       4.240620       115.3931 
 248   0.0000       4.302941       117.0890 
 249   0.0000       4.319028       117.5267 
 250   0.0000       4.390872       119.4817 
 251   0.0000       4.440655       120.8364 
 252   0.0000       4.478590       121.8686 
 253   0.0000       4.491419       122.2177 
 254   0.0000       4.494910       122.3127 
 255   0.0000       4.507189       122.6468 
 256   0.0000       4.518613       122.9577 
 257   0.0000       4.530411       123.2788 
 258   0.0000       4.586300       124.7996 
 259   0.0000       4.621637       125.7611 
 260   0.0000       4.755326       129.3990 
 261   0.0000       4.818845       131.1274 
 262   0.0000       5.006092       136.2227 
 263   0.0000       5.090176       138.5107 
 264   0.0000      21.995293       598.5224 
 265   0.0000      22.028803       599.4342 
 266   0.0000      22.076569       600.7340 
 267   0.0000      22.161237       603.0379 
 268   0.0000      22.190168       603.8252 
 269   0.0000      22.203198       604.1797 

                    ********************************
                    * MULLIKEN POPULATION ANALYSIS *
                    ********************************

-----------------------
MULLIKEN ATOMIC CHARGES
-----------------------
   0 C :   -0.342668
   1 C :   -0.146826
   2 C :   -0.182649
   3 C :   -0.182649
   4 C :   -0.146826
   5 C :   -0.342668
   6 H :    0.124760
   7 H :    0.110552
   8 H :    0.104253
   9 H :    0.088410
  10 H :    0.084503
  11 H :    0.080817
  12 H :    0.078848
  13 H :    0.080817
  14 H :    0.078848
  15 H :    0.088410
  16 H :    0.084503
  17 H :    0.124760
  18 H :    0.104253
  19 H :    0.110552
Sum of atomic charges:   -0.0000000

--------------------------------
MULLIKEN REDUCED ORBITAL CHARGES
--------------------------------
  0 C s       :     3.239708  s :     3.239708
      pz      :     1.050762  p :     3.048897
      px      :     0.963445
      py      :     1.034690
      dz2     :     0.008136  d :     0.050928
      dxz     :     0.010194
      dyz     :     0.008503
      dx2y2   :     0.007102
      dxy     :     0.016993
      f0      :     0.000372  f :     0.003134
      f+1     :     0.000343
      f-1     :     0.000514
      f+2     :     0.000252
      f-2     :     0.000341
      f+3     :     0.000831
      f-3     :     0.000481
  1 C s       :     3.174598  s :     3.174598
      pz      :     1.001169  p :     2.872998
      px      :     0.917480
      py      :     0.954349
      dz2     :     0.009323  d :     0.093855
      dxz     :     0.016069
      dyz     :     0.021283
      dx2y2   :     0.024188
      dxy     :     0.022992
      f0      :     0.000662  f :     0.005375
      f+1     :     0.000454
      f-1     :     0.000573
      f+2     :     0.000276
      f-2     :     0.000965
      f+3     :     0.001276
      f-3     :     0.001169
  2 C s       :     3.184146  s :     3.184146
      pz      :     1.010935  p :     2.903552
      px      :     0.936076
      py      :     0.956541
      dz2     :     0.008556  d :     0.089613
      dxz     :     0.015546
      dyz     :     0.022048
      dx2y2   :     0.023774
      dxy     :     0.019689
      f0      :     0.000661  f :     0.005339
      f+1     :     0.000450
      f-1     :     0.000574
      f+2     :     0.000278
      f-2     :     0.000976
      f+3     :     0.001226
      f-3     :     0.001173
  3 C s       :     3.184146  s :     3.184146
      pz      :     1.010935  p :     2.903552
      px      :     0.936076
      py      :     0.956541
      dz2     :     0.008556  d :     0.089613
      dxz     :     0.015546
      dyz     :     0.022048
      dx2y2   :     0.023774
      dxy     :     0.019689
      f0      :     0.000661  f :     0.005339
      f+1     :     0.000450
      f-1     :     0.000574
      f+2     :     0.000278
      f-2     :     0.000976
      f+3     :     0.001226
      f-3     :     0.001173
  4 C s       :     3.174598  s :     3.174598
      pz      :     1.001169  p :     2.872998
      px      :     0.917480
      py      :     0.954349
      dz2     :     0.009323  d :     0.093855
      dxz     :     0.016069
      dyz     :     0.021283
      dx2y2   :     0.024188
      dxy     :     0.022992
      f0      :     0.000662  f :     0.005375
      f+1     :     0.000454
      f-1     :     0.000573
      f+2     :     0.000276
      f-2     :     0.000965
      f+3     :     0.001276
      f-3     :     0.001169
  5 C s       :     3.239708  s :     3.239708
      pz      :     1.050762  p :     3.048897
      px      :     0.963445
      py      :     1.034690
      dz2     :     0.008136  d :     0.050928
      dxz     :     0.010194
      dyz     :     0.008503
      dx2y2   :     0.007102
      dxy     :     0.016993
      f0      :     0.000372  f :     0.003134
      f+1     :     0.000343
      f-1     :     0.000514
      f+2     :     0.000252
      f-2     :     0.000341
      f+3     :     0.000831
      f-3     :     0.000481
  6 H s       :     0.854373  s :     0.854373
      pz      :     0.004644  p :     0.020866
      px      :     0.008105
      py      :     0.008117
  7 H s       :     0.868649  s :     0.868649
      pz      :     0.007193  p :     0.020800
      px      :     0.005614
      py      :     0.007992
  8 H s       :     0.875191  s :     0.875191
      pz      :     0.010333  p :     0.020556
      px      :     0.004499
      py      :     0.005724
  9 H s       :     0.890821  s :     0.890821
      pz      :     0.007024  p :     0.020770
      px      :     0.005101
      py      :     0.008645
 10 H s       :     0.894737  s :     0.894737
      pz      :     0.010160  p :     0.020760
      px      :     0.004444
      py      :     0.006156
 11 H s       :     0.898353  s :     0.898353
      pz      :     0.007003  p :     0.020831
      px      :     0.005164
      py      :     0.008664
 12 H s       :     0.900460  s :     0.900460
      pz      :     0.010101  p :     0.020692
      px      :     0.004429
      py      :     0.006162
 13 H s       :     0.898353  s :     0.898353
      pz      :     0.007003  p :     0.020831
      px      :     0.005164
      py      :     0.008664
 14 H s       :     0.900460  s :     0.900460
      pz      :     0.010101  p :     0.020692
      px      :     0.004429
      py      :     0.006162
 15 H s       :     0.890821  s :     0.890821
      pz      :     0.007024  p :     0.020770
      px      :     0.005101
      py      :     0.008645
 16 H s       :     0.894737  s :     0.894737
      pz      :     0.010160  p :     0.020760
      px      :     0.004444
      py      :     0.006156
 17 H s       :     0.854373  s :     0.854373
      pz      :     0.004644  p :     0.020866
      px      :     0.008105
      py      :     0.008117
 18 H s       :     0.875191  s :     0.875191
      pz      :     0.010333  p :     0.020556
      px      :     0.004499
      py      :     0.005724
 19 H s       :     0.868649  s :     0.868649
      pz      :     0.007193  p :     0.020800
      px      :     0.005614
      py      :     0.007992


                     *******************************
                     * LOEWDIN POPULATION ANALYSIS *
                     *******************************

----------------------
LOEWDIN ATOMIC CHARGES
----------------------
   0 C :   -0.325034
   1 C :   -0.302331
   2 C :   -0.276781
   3 C :   -0.276781
   4 C :   -0.302331
   5 C :   -0.325034
   6 H :    0.121129
   7 H :    0.120455
   8 H :    0.120170
   9 H :    0.134860
  10 H :    0.134753
  11 H :    0.136504
  12 H :    0.136275
  13 H :    0.136504
  14 H :    0.136275
  15 H :    0.134860
  16 H :    0.134753
  17 H :    0.121129
  18 H :    0.120170
  19 H :    0.120455

-------------------------------
LOEWDIN REDUCED ORBITAL CHARGES
-------------------------------
  0 C s       :     2.842038  s :     2.842038
      pz      :     1.075533  p :     3.198596
      px      :     1.050009
      py      :     1.073054
      dz2     :     0.049433  d :     0.260117
      dxz     :     0.043121
      dyz     :     0.045112
      dx2y2   :     0.039556
      dxy     :     0.082895
      f0      :     0.002358  f :     0.024283
      f+1     :     0.003850
      f-1     :     0.002424
      f+2     :     0.004232
      f-2     :     0.002662
      f+3     :     0.005428
      f-3     :     0.003329
  1 C s       :     2.788526  s :     2.788526
      pz      :     1.029681  p :     3.073526
      px      :     1.018635
      py      :     1.025209
      dz2     :     0.054910  d :     0.402077
      dxz     :     0.062267
      dyz     :     0.090163
      dx2y2   :     0.097386
      dxy     :     0.097352
      f0      :     0.004209  f :     0.038201
      f+1     :     0.004394
      f-1     :     0.003169
      f+2     :     0.004500
      f-2     :     0.006295
      f+3     :     0.008231
      f-3     :     0.007404
  2 C s       :     2.785694  s :     2.785694
      pz      :     1.026562  p :     3.054702
      px      :     1.006054
      py      :     1.022086
      dz2     :     0.055048  d :     0.398435
      dxz     :     0.060520
      dyz     :     0.090914
      dx2y2   :     0.095907
      dxy     :     0.096047
      f0      :     0.004167  f :     0.037950
      f+1     :     0.004322
      f-1     :     0.003163
      f+2     :     0.004490
      f-2     :     0.006339
      f+3     :     0.008010
      f-3     :     0.007461
  3 C s       :     2.785694  s :     2.785694
      pz      :     1.026562  p :     3.054702
      px      :     1.006054
      py      :     1.022086
      dz2     :     0.055048  d :     0.398435
      dxz     :     0.060520
      dyz     :     0.090914
      dx2y2   :     0.095907
      dxy     :     0.096047
      f0      :     0.004167  f :     0.037950
      f+1     :     0.004322
      f-1     :     0.003163
      f+2     :     0.004490
      f-2     :     0.006339
      f+3     :     0.008010
      f-3     :     0.007461
  4 C s       :     2.788527  s :     2.788527
      pz      :     1.029681  p :     3.073526
      px      :     1.018635
      py      :     1.025209
      dz2     :     0.054910  d :     0.402077
      dxz     :     0.062267
      dyz     :     0.090163
      dx2y2   :     0.097386
      dxy     :     0.097352
      f0      :     0.004209  f :     0.038201
      f+1     :     0.004394
      f-1     :     0.003169
      f+2     :     0.004500
      f-2     :     0.006295
      f+3     :     0.008231
      f-3     :     0.007404
  5 C s       :     2.842038  s :     2.842038
      pz      :     1.075533  p :     3.198596
      px      :     1.050009
      py      :     1.073054
      dz2     :     0.049433  d :     0.260117
      dxz     :     0.043121
      dyz     :     0.045112
      dx2y2   :     0.039556
      dxy     :     0.082895
      f0      :     0.002358  f :     0.024283
      f+1     :     0.003850
      f-1     :     0.002424
      f+2     :     0.004232
      f-2     :     0.002662
      f+3     :     0.005428
      f-3     :     0.003329
  6 H s       :     0.818301  s :     0.818301
      pz      :     0.013410  p :     0.060571
      px      :     0.021740
      py      :     0.025421
  7 H s       :     0.819191  s :     0.819191
      pz      :     0.021533  p :     0.060353
      px      :     0.014990
      py      :     0.023830
  8 H s       :     0.819494  s :     0.819494
      pz      :     0.031034  p :     0.060336
      px      :     0.012777
      py      :     0.016524
  9 H s       :     0.807262  s :     0.807262
      pz      :     0.020787  p :     0.057878
      px      :     0.014336
      py      :     0.022756
 10 H s       :     0.807427  s :     0.807427
      pz      :     0.029306  p :     0.057820
      px      :     0.012505
      py      :     0.016009
 11 H s       :     0.805642  s :     0.805642
      pz      :     0.020615  p :     0.057855
      px      :     0.014255
      py      :     0.022986
 12 H s       :     0.805951  s :     0.805951
      pz      :     0.029209  p :     0.057774
      px      :     0.012460
      py      :     0.016105
 13 H s       :     0.805642  s :     0.805642
      pz      :     0.020615  p :     0.057855
      px      :     0.014255
      py      :     0.022986
 14 H s       :     0.805951  s :     0.805951
      pz      :     0.029209  p :     0.057774
      px      :     0.012460
      py      :     0.016105
 15 H s       :     0.807262  s :     0.807262
      pz      :     0.020787  p :     0.057878
      px      :     0.014336
      py      :     0.022756
 16 H s       :     0.807427  s :     0.807427
      pz      :     0.029306  p :     0.057820
      px      :     0.012505
      py      :     0.016009
 17 H s       :     0.818301  s :     0.818301
      pz      :     0.013410  p :     0.060571
      px      :     0.021740
      py      :     0.025421
 18 H s       :     0.819494  s :     0.819494
      pz      :     0.031034  p :     0.060336
      px      :     0.012777
      py      :     0.016524
 19 H s       :     0.819191  s :     0.819191
      pz      :     0.021533  p :     0.060353
      px      :     0.014990
      py      :     0.023830


                      *****************************
                      * MAYER POPULATION ANALYSIS *
                      *****************************

  NA   - Mulliken gross atomic population
  ZA   - Total nuclear charge
  QA   - Mulliken gross atomic charge
  VA   - Mayer's total valence
  BVA  - Mayer's bonded valence
  FA   - Mayer's free valence

  ATOM       NA         ZA         QA         VA         BVA        FA
  0 C      6.3427     6.0000    -0.3427     3.9202     3.9202    -0.0000
  1 C      6.1468     6.0000    -0.1468     3.9540     3.9540    -0.0000
  2 C      6.1826     6.0000    -0.1826     3.9837     3.9837    -0.0000
  3 C      6.1826     6.0000    -0.1826     3.9837     3.9837    -0.0000
  4 C      6.1468     6.0000    -0.1468     3.9540     3.9540    -0.0000
  5 C      6.3427     6.0000    -0.3427     3.9202     3.9202     0.0000
  6 H      0.8752     1.0000     0.1248     0.9639     0.9639    -0.0000
  7 H      0.8894     1.0000     0.1106     0.9707     0.9707     0.0000
  8 H      0.8957     1.0000     0.1043     0.9764     0.9764    -0.0000
  9 H      0.9116     1.0000     0.0884     0.9666     0.9666     0.0000
 10 H      0.9155     1.0000     0.0845     0.9706     0.9706    -0.0000
 11 H      0.9192     1.0000     0.0808     0.9722     0.9722    -0.0000
 12 H      0.9212     1.0000     0.0788     0.9751     0.9751    -0.0000
 13 H      0.9192     1.0000     0.0808     0.9722     0.9722     0.0000
 14 H      0.9212     1.0000     0.0788     0.9751     0.9751    -0.0000
 15 H      0.9116     1.0000     0.0884     0.9666     0.9666     0.0000
 16 H      0.9155     1.0000     0.0845     0.9706     0.9706    -0.0000
 17 H      0.8752     1.0000     0.1248     0.9639     0.9639     0.0000
 18 H      0.8957     1.0000     0.1043     0.9764     0.9764    -0.0000
 19 H      0.8894     1.0000     0.1106     0.9707     0.9707     0.0000

  Mayer bond orders larger than 0.1
B(  0-C ,  1-C ) :   1.0127 B(  0-C , 17-H ) :   0.9673 B(  0-C , 18-H ) :   0.9644 
B(  0-C , 19-H ) :   0.9666 B(  1-C ,  2-C ) :   1.0357 B(  1-C , 15-H ) :   0.9512 
B(  1-C , 16-H ) :   0.9479 B(  2-C ,  3-C ) :   1.0324 B(  2-C , 13-H ) :   0.9465 
B(  2-C , 14-H ) :   0.9442 B(  3-C ,  4-C ) :   1.0357 B(  3-C , 11-H ) :   0.9465 
B(  3-C , 12-H ) :   0.9442 B(  4-C ,  5-C ) :   1.0127 B(  4-C ,  9-H ) :   0.9512 
B(  4-C , 10-H ) :   0.9479 B(  5-C ,  6-H ) :   0.9673 B(  5-C ,  7-H ) :   0.9666 
B(  5-C ,  8-H ) :   0.9644 

-------
TIMINGS
-------

Total SCF time: 0 days 0 hours 0 min 15 sec 

Total time                  ....      15.963 sec
Sum of individual times     ....      15.173 sec  ( 95.1%)

Fock matrix formation       ....      11.587 sec  ( 72.6%)
  Split-RI-J                ....       4.376 sec  ( 37.8% of F)
  XC integration            ....       6.856 sec  ( 59.2% of F)
    Basis function eval.    ....       2.456 sec  ( 35.8% of XC)
    Density eval.           ....       1.234 sec  ( 18.0% of XC)
    XC-Functional eval.     ....       0.374 sec  (  5.5% of XC)
    XC-Potential eval.      ....       2.309 sec  ( 33.7% of XC)
Diagonalization             ....       0.026 sec  (  0.2%)
Density matrix formation    ....       0.006 sec  (  0.0%)
Population analysis         ....       0.052 sec  (  0.3%)
Initial guess               ....       0.018 sec  (  0.1%)
Orbital Transformation      ....       0.000 sec  (  0.0%)
Orbital Orthonormalization  ....       0.014 sec  (  0.1%)
DIIS solution               ....       0.007 sec  (  0.0%)
SOSCF solution              ....       0.108 sec  (  0.7%)
Grid generation             ....       3.369 sec  ( 21.1%)

-------------------------   --------------------
FINAL SINGLE POINT ENERGY      -236.811739609138
-------------------------   --------------------

                                *** OPTIMIZATION RUN DONE ***

                            ***************************************
                            *     ORCA property calculations      *
                            ***************************************

                                    ---------------------
                                    Active property flags
                                    ---------------------
   (+) Dipole Moment


------------------------------------------------------------------------------
                       ORCA ELECTRIC PROPERTIES CALCULATION
------------------------------------------------------------------------------

Dipole Moment Calculation                       ... on
Quadrupole Moment Calculation                   ... off
Polarizability Calculation                      ... off
GBWName                                         ... opt.gbw
Electron density file                           ... opt.scfp.tmp
The origin for moment calculation is the CENTER OF MASS  = ( 5.826127, -0.753879  1.217268)

-------------
DIPOLE MOMENT
-------------
                                X             Y             Z
Electronic contribution:      0.00000      -0.00000      -0.00000
Nuclear contribution   :     -0.00000       0.00000       0.00000
                        -----------------------------------------
Total Dipole Moment    :      0.00000      -0.00000      -0.00000
                        -----------------------------------------
Magnitude (a.u.)       :      0.00000
Magnitude (Debye)      :      0.00000


Timings for individual modules:

Sum of individual times         ...      271.225 sec (=   4.520 min)
GTO integral calculation        ...        2.638 sec (=   0.044 min)   1.0 %
SCF iterations                  ...      168.170 sec (=   2.803 min)  62.0 %
SCF Gradient evaluation         ...       99.809 sec (=   1.663 min)  36.8 %
Geometry relaxation             ...        0.607 sec (=   0.010 min)   0.2 %
                             ****ORCA TERMINATED NORMALLY****
TOTAL RUN TIME: 0 days 0 hours 4 minutes 31 seconds 949 msec
